# vtk DataFile Version 4.0
vtk output
ASCII
DATASET POLYDATA
FIELD FieldData 4
domain 1 3 string
domain_min:-20|-15
domain_max:20|15
cell_size:0.05

variables 1 2 string
dt:0.000372678
T:0.965954

constants 1 10 string
xsize:2
ysize:1
csize:0.05
dx:0.0238095
h:0.025
rho0:1000
mass:0.566894
g:1|0
c:13.4164
CFL:0.2

functions 1 8 string
time:T=(T+dt)
continuity:rho_dot=((-(rho*sph_D00(v,mass,rho,Wp52220)))+(((0.1*c)*h)*sph_L00(rho,mass,rho,Wp52220)))
irho:rho=(rho+int1((rho_dot,dt))
EOS:p=(((c^2)*(rho-rho0))+10000)
euler:a=if((gid,(0*v),(((-((1/rho)*sph_G11(p,mass,rho,Wp52220)))+(0.01*sph_L00(v,mass,rho,Wp52220)))+g))
vel:v=(v+int1((a,dt))
pos:r=(r+int1((v,dt))
new_dt:dt=(CFL*min((sqrt(((h/fmax(magnitude((a)))),(h/c)))

POINTS 2798 float
-0.5375 -0.4875 0 -0.5125 -0.4625 0 -0.5125 -0.4875 0 
-0.5375 -0.4625 0 -0.487805 -0.4875 0 -0.463415 -0.4625 0 
-0.487805 -0.4625 0 -0.463415 -0.4875 0 -0.439024 -0.4875 0 
-0.439024 -0.4625 0 -0.414634 -0.4625 0 -0.414634 -0.4875 0 
-0.365854 -0.4875 0 -0.390244 -0.4625 0 -0.390244 -0.4875 0 
-0.365854 -0.4625 0 -0.341463 -0.4625 0 -0.341463 -0.4875 0 
-0.317073 -0.4625 0 -0.317073 -0.4875 0 -0.292683 -0.4875 0 
-0.268293 -0.4875 0 -0.268293 -0.4625 0 -0.292683 -0.4625 0 
-0.219512 -0.4625 0 -0.243902 -0.4875 0 -0.219512 -0.4875 0 
-0.243902 -0.4625 0 -0.170732 -0.4625 0 -0.170732 -0.4875 0 
-0.195122 -0.4625 0 -0.195122 -0.4875 0 -0.146341 -0.4625 0 
-0.121951 -0.4875 0 -0.121951 -0.4625 0 -0.146341 -0.4875 0 
-0.097561 -0.4875 0 -0.0731707 -0.4875 0 -0.0731707 -0.4625 0 
-0.097561 -0.4625 0 -1.86265e-08 -0.4625 0 -0.0243903 -0.4625 0 
-1.86265e-08 -0.4875 0 -0.0243903 -0.4875 0 -0.0487805 -0.4875 0 
-0.0487805 -0.4625 0 0.0243902 -0.4625 0 0.0487805 -0.4625 0 
0.0487805 -0.4875 0 0.0243902 -0.4875 0 0.0731707 -0.4625 0 
0.097561 -0.4875 0 0.0731707 -0.4875 0 0.097561 -0.4625 0 
0.146341 -0.4625 0 0.121951 -0.4625 0 0.121951 -0.4875 0 
0.146341 -0.4875 0 0.195122 -0.4875 0 0.170732 -0.4875 0 
0.195122 -0.4625 0 0.170732 -0.4625 0 0.243902 -0.4875 0 
0.219512 -0.4625 0 0.243902 -0.4625 0 0.219512 -0.4875 0 
0.292683 -0.4625 0 0.292683 -0.4875 0 0.268293 -0.4625 0 
0.268293 -0.4875 0 0.317073 -0.4875 0 0.341463 -0.4625 0 
0.317073 -0.4625 0 0.341463 -0.4875 0 0.365854 -0.4875 0 
0.390244 -0.4875 0 0.390244 -0.4625 0 0.365854 -0.4625 0 
0.414634 -0.4625 0 0.439024 -0.4625 0 0.414634 -0.4875 0 
0.439024 -0.4875 0 0.487805 -0.4875 0 0.463415 -0.4625 0 
0.463415 -0.4875 0 0.487805 -0.4625 0 0.5125 -0.4625 0 
0.5375 -0.4625 0 0.5125 -0.4875 0 0.5375 -0.4875 0 
-0.5375 -0.4125 0 -0.5125 -0.4375 0 -0.5125 -0.4125 0 
-0.5375 -0.4375 0 -0.48837 -0.437001 0 -0.466142 -0.435079 0 
-0.46737 -0.404992 0 -0.488575 -0.410928 0 -0.420232 -0.413555 0 
-0.44583 -0.413948 0 -0.400218 -0.404009 0 -0.417126 -0.436837 0 
-0.442257 -0.438566 0 -0.381801 -0.418609 0 -0.393577 -0.438326 0 
-0.356168 -0.411349 0 -0.365568 -0.43835 0 -0.318217 -0.437561 0 
-0.342015 -0.436974 0 -0.308296 -0.412562 0 -0.332785 -0.411943 0 
-0.270891 -0.436939 0 -0.261282 -0.410491 0 -0.284479 -0.411099 0 
-0.294169 -0.437205 0 -0.239433 -0.407165 0 -0.217761 -0.407869 0 
-0.226612 -0.435199 0 -0.248065 -0.4362 0 -0.204909 -0.436526 0 
-0.182701 -0.436338 0 -0.151278 -0.408996 0 -0.196134 -0.40906 0 
-0.173747 -0.40958 0 -0.160349 -0.436532 0 -0.107233 -0.410282 0 
-0.129504 -0.407948 0 -0.138308 -0.43598 0 -0.116466 -0.436299 0 
-0.0935676 -0.437174 0 -0.0699668 -0.43739 0 -0.060105 -0.412408 0 
-0.0839958 -0.411589 0 -0.0458803 -0.437729 0 -0.0215739 -0.437704 0 
-0.0118253 -0.412991 0 -0.0360385 -0.412835 0 0.0282779 -0.438382 0 
0.00284583 -0.43788 0 0.0137535 -0.414759 0 0.0400836 -0.415412 0 
0.0915797 -0.413731 0 0.0662962 -0.414626 0 0.0792869 -0.437982 0 
0.0540824 -0.438366 0 0.146644 -0.419082 0 0.130129 -0.438505 0 
0.116232 -0.415415 0 0.104204 -0.438568 0 0.184925 -0.438531 0 
0.177008 -0.41664 0 0.158454 -0.439202 0 0.212109 -0.439525 0 
0.205104 -0.417241 0 0.240672 -0.439318 0 0.23159 -0.417921 0 
0.298693 -0.439024 0 0.290213 -0.418671 0 0.270163 -0.439602 0 
0.260534 -0.419737 0 0.338924 -0.400754 0 0.321878 -0.418946 0 
0.326748 -0.439343 0 0.383416 -0.416912 0 0.354028 -0.439322 0 
0.381556 -0.438632 0 0.354116 -0.418398 0 0.408892 -0.439712 0 
0.41258 -0.418103 0 0.436843 -0.438878 0 0.437398 -0.41512 0 
0.462534 -0.413049 0 0.487694 -0.438743 0 0.462112 -0.437707 0 
0.487025 -0.415331 0 0.5375 -0.4375 0 0.5375 -0.4125 0 
0.5125 -0.4375 0 0.5125 -0.4125 0 -0.5375 -0.3875 0 
-0.5125 -0.3875 0 -0.5125 -0.3625 0 -0.5375 -0.3625 0 
-0.452834 -0.384569 0 -0.471366 -0.369983 0 -0.490782 -0.353341 0 
-0.489052 -0.384277 0 -0.429197 -0.390701 0 -0.415008 -0.371667 0 
-0.438562 -0.362177 0 -0.358136 -0.373473 0 -0.371223 -0.393209 0 
-0.37947 -0.360603 0 -0.393821 -0.381237 0 -0.315177 -0.363664 0 
-0.338734 -0.387035 0 -0.337646 -0.358197 0 -0.314376 -0.387929 0 
-0.266239 -0.384169 0 -0.291218 -0.360629 0 -0.28969 -0.386028 0 
-0.268107 -0.35753 0 -0.244138 -0.380005 0 -0.24598 -0.352854 0 
-0.201258 -0.352565 0 -0.221921 -0.37969 0 -0.200228 -0.38095 0 
-0.223316 -0.35257 0 -0.179462 -0.355993 0 -0.155091 -0.382252 0 
-0.177995 -0.382867 0 -0.156686 -0.355753 0 -0.110614 -0.383324 0 
-0.134536 -0.352021 0 -0.112409 -0.356227 0 -0.132892 -0.379901 0 
-0.0634175 -0.387 0 -0.0658527 -0.361443 0 -0.0894308 -0.359851 0 
-0.087293 -0.385753 0 -0.0396506 -0.387375 0 -0.0422975 -0.361608 0 
-0.0189922 -0.361465 0 -0.0161345 -0.387586 0 0.0288899 -0.367793 0 
0.00835312 -0.390879 0 0.00472408 -0.36578 0 0.0337357 -0.392122 0 
0.053175 -0.367305 0 0.0590417 -0.391604 0 0.0771667 -0.365446 0 
0.0839636 -0.389419 0 0.107535 -0.388898 0 0.148876 -0.352033 0 
0.101811 -0.362778 0 0.127442 -0.373531 0 0.133675 -0.398377 0 
0.180568 -0.380251 0 0.173624 -0.356537 0 0.152457 -0.376696 0 
0.196167 -0.396441 0 0.19756 -0.358013 0 0.162457 -0.398621 0 
0.225607 -0.394826 0 0.21308 -0.375859 0 0.248163 -0.37566 0 
0.232897 -0.35962 0 0.298044 -0.356657 0 0.278988 -0.398022 0 
0.252205 -0.397946 0 0.266472 -0.354376 0 0.275608 -0.375356 0 
0.302559 -0.378528 0 0.326591 -0.357352 0 0.329805 -0.379074 0 
0.308407 -0.39995 0 0.362006 -0.356571 0 0.385188 -0.379898 0 
0.389238 -0.35892 0 0.36882 -0.397426 0 0.354967 -0.377032 0 
0.413829 -0.378047 0 0.402263 -0.398505 0 0.422588 -0.357459 0 
0.445178 -0.370405 0 0.433541 -0.392895 0 0.480066 -0.372113 0 
0.489611 -0.39161 0 0.460925 -0.39 0 0.461807 -0.354528 0 
0.490045 -0.351635 0 0.5375 -0.3875 0 0.5125 -0.3875 0 
0.5375 -0.3625 0 0.5125 -0.3625 0 -0.5375 -0.3125 0 
-0.5375 -0.3375 0 -0.5125 -0.3125 0 -0.5125 -0.3375 0 
-0.457184 -0.348257 0 -0.477173 -0.334386 0 -0.458071 -0.316018 0 
-0.490683 -0.315825 0 -0.418586 -0.310622 0 -0.438958 -0.328681 0 
-0.42105 -0.342371 0 -0.399557 -0.320789 0 -0.378735 -0.301748 0 
-0.358759 -0.344431 0 -0.357778 -0.312918 0 -0.378008 -0.330513 0 
-0.3995 -0.348579 0 -0.301519 -0.309881 0 -0.317843 -0.337195 0 
-0.339172 -0.32838 0 -0.324027 -0.307324 0 -0.250346 -0.325835 0 
-0.278572 -0.305366 0 -0.272171 -0.331288 0 -0.295159 -0.335084 0 
-0.205146 -0.32437 0 -0.227504 -0.326206 0 -0.167493 -0.303219 0 
-0.183467 -0.327927 0 -0.160844 -0.329686 0 -0.10143 -0.304681 0 
-0.116723 -0.328111 0 -0.139021 -0.324444 0 -0.0787265 -0.308754 0 
-0.0552589 -0.310047 0 -0.0942421 -0.333044 0 -0.0711232 -0.335414 0 
-0.0082255 -0.311333 0 -0.0477295 -0.335768 0 -0.0247066 -0.334895 0 
-0.0319217 -0.308659 0 -0.00143567 -0.338593 0 0.0209281 -0.341438 0 
0.036742 -0.31564 0 0.0142886 -0.313388 0 0.0437027 -0.341907 0 
0.0597539 -0.313524 0 0.089781 -0.339716 0 0.082742 -0.314053 0 
0.0661683 -0.339969 0 0.102297 -0.302268 0 0.14545 -0.328374 0 
0.110643 -0.329329 0 0.123976 -0.348685 0 0.127347 -0.312774 0 
0.171895 -0.332046 0 0.161164 -0.307455 0 0.195191 -0.329747 0 
0.185028 -0.304994 0 0.229025 -0.321829 0 0.247995 -0.339213 0 
0.247267 -0.304788 0 0.20953 -0.306614 0 0.216321 -0.341571 0 
0.293061 -0.315196 0 0.264603 -0.321109 0 0.284467 -0.337075 0 
0.322302 -0.316009 0 0.348625 -0.320326 0 0.34376 -0.341535 0 
0.313741 -0.335804 0 0.375127 -0.335613 0 0.375122 -0.313285 0 
0.437386 -0.339418 0 0.426953 -0.319802 0 0.404445 -0.341742 0 
0.401326 -0.319719 0 0.460155 -0.330563 0 0.485426 -0.329186 0 
0.458117 -0.30846 0 0.487094 -0.307587 0 0.5125 -0.3375 0 
0.5125 -0.3125 0 0.5375 -0.3375 0 0.5375 -0.3125 0 
-0.5375 -0.2625 0 -0.5125 -0.2625 0 -0.5125 -0.2875 0 
-0.5375 -0.2875 0 -0.45318 -0.280238 0 -0.466569 -0.261942 0 
-0.489416 -0.283488 0 -0.472498 -0.29713 0 -0.488163 -0.257 0 
-0.417775 -0.2802 0 -0.432598 -0.263043 0 -0.438099 -0.297819 0 
-0.404714 -0.255331 0 -0.36457 -0.280126 0 -0.397861 -0.289865 0 
-0.384696 -0.266823 0 -0.348941 -0.261122 0 -0.305287 -0.2841 0 
-0.326983 -0.274988 0 -0.306837 -0.256629 0 -0.343165 -0.292772 0 
-0.256841 -0.299186 0 -0.2609 -0.272644 0 -0.285202 -0.251297 0 
-0.282993 -0.278652 0 -0.233923 -0.299609 0 -0.215295 -0.270521 0 
-0.211595 -0.297366 0 -0.237865 -0.272919 0 -0.193045 -0.270147 0 
-0.189457 -0.298477 0 -0.17117 -0.27528 0 -0.104828 -0.276307 0 
-0.126998 -0.271398 0 -0.145921 -0.297637 0 -0.123449 -0.299204 0 
-0.149429 -0.270713 0 -0.0823789 -0.282128 0 -0.0810996 -0.256201 0 
-0.057324 -0.260004 0 -0.0584801 -0.284673 0 -0.0327923 -0.256987 0 
-0.00986889 -0.259797 0 -0.0343604 -0.282979 0 -0.0104103 -0.285417 0 
0.0354312 -0.26314 0 0.0134685 -0.258668 0 0.0354505 -0.289315 0 
0.0126227 -0.28595 0 0.0791177 -0.254137 0 0.0992703 -0.268545 0 
0.0819306 -0.285186 0 0.0594646 -0.288057 0 0.0587478 -0.262573 0 
0.133976 -0.264876 0 0.118145 -0.284433 0 0.142656 -0.293325 0 
0.191451 -0.259562 0 0.17562 -0.282054 0 0.156969 -0.271465 0 
0.226201 -0.266985 0 0.228952 -0.289788 0 0.20202 -0.281358 0 
0.255244 -0.27867 0 0.273371 -0.296309 0 0.28262 -0.273131 0 
0.250358 -0.256677 0 0.276722 -0.251735 0 0.333456 -0.269346 0 
0.30824 -0.269059 0 0.301101 -0.293599 0 0.326432 -0.293029 0 
0.357195 -0.273666 0 0.351452 -0.297329 0 0.392598 -0.26994 0 
[...]
POINT_DATA 2798
SCALARS id float
LOOKUP_TABLE default
2600 2621 2620 2601 2640 2643 2641 2642 2644 
2645 2647 2646 2650 2649 2648 2651 2653 2652 
2655 2654 2656 2658 2659 2657 2663 2660 2662 
2661 2667 2666 2665 2664 2669 2670 2671 2668 
2672 2674 2675 2673 2681 2679 2680 2678 2676 
2677 2683 2685 2684 2682 2687 2688 2686 2689 
2693 2691 2690 2692 2696 2694 2697 2695 2700 
2699 2701 2698 2705 2704 2703 2702 2706 2709 
2707 2708 2710 2712 2713 2711 2715 2717 2714 
2716 2720 2719 2718 2721 2723 2743 2722 2742 
2603 2622 2623 2602 1660 1678 1679 1661 1715 
1697 1733 1714 1696 1750 1732 1787 1768 1804 
1786 1823 1805 1840 1859 1841 1822 1877 1895 
1876 1858 1894 1912 1949 1913 1931 1930 1985 
1967 1948 1966 1984 2002 2021 2003 2020 2038 
2057 2039 2074 2056 2075 2093 2129 2111 2110 
2092 2165 2146 2147 2128 2182 2183 2164 2200 
2201 2218 2219 2254 2255 2236 2237 2292 2273 
2272 2309 2290 2308 2291 2326 2327 2344 2345 
2363 2380 2362 2381 2744 2745 2724 2725 2604 
2624 2625 2605 1698 1680 1663 1662 1716 1734 
1717 1788 1769 1770 1751 1825 1806 1807 1824 
1860 1843 1842 1861 1878 1879 1915 1896 1914 
1897 1933 1950 1932 1951 1986 1969 1987 1968 
2022 2023 2005 2004 2040 2041 2059 2058 2095 
2076 2077 2094 2113 2112 2131 2130 2148 2186 
2149 2167 2166 2203 2204 2185 2202 2222 2184 
2220 2221 2239 2240 2276 2256 2238 2258 2257 
2275 2294 2293 2274 2312 2329 2330 2310 2311 
2347 2328 2348 2365 2346 2383 2382 2364 2366 
2384 2746 2726 2747 2727 2607 2606 2627 2626 
1699 1681 1700 1664 1736 1718 1735 1753 1772 
1789 1790 1771 1752 1845 1826 1808 1827 1880 
1863 1862 1844 1916 1898 1953 1934 1952 2007 
1988 1970 2025 2043 2006 2024 2079 2042 2060 
2061 2078 2096 2115 2097 2114 2133 2150 2151 
2132 2170 2187 2169 2168 2188 2205 2189 2206 
2190 2224 2241 2225 2207 2223 2260 2242 2259 
2278 2296 2295 2277 2313 2314 2349 2350 2331 
2332 2367 2385 2368 2386 2728 2729 2748 2749 
2609 2629 2628 2608 1701 1683 1665 1682 1666 
1737 1720 1719 1755 1791 1754 1773 1810 1846 
1828 1847 1809 1881 1882 1865 1864 1899 1918 
1917 1900 1936 1935 1954 2008 1990 1971 1989 
1972 2026 2027 2045 2044 2063 2081 2062 2080 
2117 2099 2116 2098 2136 2153 2152 2134 2135 
2154 2171 2172 2156 2173 2155 2174 2208 2191 
2226 2243 2244 2209 2227 2280 2262 2261 2279 
2298 2297 2316 2315 2299 2351 2333 2334 2352 
2317 2369 2370 2387 2388 2751 2750 2731 2730 
2611 2631 2610 2630 1684 1668 1667 1703 1738 
1756 1721 1702 1774 1792 1793 1848 1811 1830 
1829 1866 1867 1883 1884 1901 1920 1902 1919 
1955 1937 1956 1938 2009 1974 1973 1991 2010 
1992 2028 2046 2029 2011 2082 2047 2065 2064 
2100 2118 2083 2101 2103 2120 2104 2119 2121 
2122 2138 2105 2137 2071 2123 2139 2052 2157 
2141 2140 2089 2210 2158 2175 2192 2245 2246 
2193 2211 2228 2263 2265 2282 2264 2281 2335 
2283 2336 2300 2354 2353 2389 2371 2733 2753 
2732 2752 2613 2612 2632 2633 1686 1704 1669 
1685 1740 1758 1739 1757 1722 1794 1776 1775 
1812 1795 1813 1850 1831 1849 1832 1869 1904 
1885 1868 1940 1921 1922 1903 1957 1976 1939 
1958 1995 1977 1975 1994 1993 2012 2030 2013 
2048 2031 2066 2014 2049 2084 2102 2067 2050 
2086 2085 2032 2087 2068 2069 2033 2088 2106 
2051 2070 2000 2036 2053 1839 2159 2107 2035 
2176 2177 2054 2124 2072 2247 2125 2194 2212 
2229 2318 2230 2284 2266 2391 2372 2390 2337 
2735 2755 2734 2754 2635 2615 2634 2614 1670 
1705 1723 1687 1760 1741 1742 1759 1796 1814 
1778 1777 1761 1816 1833 1815 1851 1886 1870 
1834 1852 1887 1923 1871 1941 1959 1905 1925 
1924 1943 1909 1960 1942 1961 1978 1944 1856 
1927 1996 1979 1874 1945 1785 1997 2015 1962 
1980 1910 1998 1999 1963 2016 160 2017 1820 
1982 2034 1981 1928 1 1964 1803 1857 1821 
180 1946 1838 140 1893 1581 1911 21 2018 
1929 2195 2248 2142 2231 2267 2355 2301 2737 
2736 2757 2756 2637 2616 2636 2617 1724 1671 
1706 1743 1725 1744 1762 1779 1727 1797 1745 
1780 1140 1798 1763 1711 1746 1781 1817 1783 
1799 1835 1853 1888 1906 1889 1926 1872 1855 
1907 1748 1801 1890 1908 80 1819 1818 1837 
1892 1873 1560 1891 1731 1713 1241 1767 1749 
1520 1540 1261 1802 1181 1580 40 1600 1201 
1541 1361 1301 1281 60 100 120 1561 1522 
20 1521 1481 1620 1362 1875 1441 0 340 
2090 1461 280 320 2285 2373 2213 2759 2738 
2739 2758 2567 2565 2564 2566 2570 2569 2568 
2571 2573 2574 2572 2575 2576 2577 2578 2579 
2580 2582 2581 2583 2584 2585 2586 2587 2588 
2590 2591 2589 2595 2594 2593 2592 2596 2599 
2597 2598 2618 2619 2638 2639 1707 1688 1673 
1672 1710 1690 1708 1689 1691 1674 1676 2289 
1020 1709 1726 2397 1100 1675 1120 1180 820 
762 1728 1060 1080 1693 1220 1695 1160 1280 
1692 1764 1800 1854 1836 1782 1729 1730 1300 
1340 1765 1500 1380 1360 1747 1040 1001 1784 
1712 1041 1320 1766 1480 1420 1440 1101 1081 
1121 1141 1400 1460 1102 1062 1122 1161 1082 
1221 1321 1341 1183 1142 1202 1222 1182 1242 
1282 1262 1243 1381 1543 1401 1640 2178 2160 
2249 1601 2319 2740 2760 2761 2741 2764 2762 
2763 2765 2768 2767 2766 2769 2773 2772 2770 
2771 2777 2774 2776 2775 2779 2778 2780 2781 
2784 2782 2785 2783 2788 2787 2789 2786 2791 
2792 2790 2793 2795 2797 2794 2796 2055 2321 
2375 1983 2304 2323 2287 2358 2109 2019 2359 
2376 2270 2395 2394 2163 2360 2306 2235 500 
341 2341 2377 640 2324 2396 2342 840 2199 
2217 2253 2271 680 2307 461 2325 421 441 
800 2361 2343 660 2378 740 700 860 720 
561 2379 462 542 482 541 422 761 601 
521 780 900 920 721 661 1677 880 1200 
682 722 681 1694 940 881 1240 1260 801 
802 960 980 861 1000 921 783 742 822 
901 862 823 803 941 843 961 1061 981 
903 922 942 1002 962 1021 1063 883 923 
982 1022 1043 1083 1103 1162 1042 1163 1184 
1123 1203 1143 1322 1421 1402 1223 181 1621 
220 1947 2338 2302 1342 1502 1382 2143 2392 
260 1582 1523 240 2320 2356 300 2214 2232 
201 2215 2161 2108 2250 161 2179 2126 2303 
41 2198 2251 2339 2374 2357 2233 2252 2180 
2393 2305 2216 2234 143 182 2144 2268 360 
2037 23 83 84 103 163 2286 2001 2073 
1644 380 2340 2269 440 2322 400 480 2091 
420 281 460 520 221 2288 261 2127 223 
321 2145 282 580 301 600 2181 262 302 
540 361 362 560 620 263 481 401 264 
381 442 363 342 382 402 501 323 403 
343 383 443 404 621 463 522 423 760 
581 701 582 502 602 641 562 583 702 
563 622 662 781 703 643 683 623 821 
841 664 741 663 723 782 743 704 763 
684 824 842 764 744 804 784 882 785 
844 805 825 902 884 963 943 904 864 
863 924 1023 1003 983 1045 1044 1024 1084 
1144 1064 1004 1302 1542 1104 1164 1204 1124 
1263 1224 1283 1185 1303 1145 1244 1562 1442 
2196 1483 1482 1501 1344 1422 1641 1544 1462 
1563 1423 200 1463 1564 1602 1503 1404 1443 
162 141 81 61 2162 2197 42 2 1622 
1584 1545 121 142 1603 102 1965 82 3 
122 1623 22 1604 1643 1605 63 123 43 
4 62 104 64 25 144 44 45 26 
241 105 124 85 65 222 242 203 183 
184 165 204 146 224 166 283 243 244 
206 205 225 284 245 303 305 285 324 
304 322 325 345 344 364 365 385 346 
384 424 425 444 405 483 445 464 484 
523 485 504 543 503 544 524 564 642 
603 604 565 584 644 624 605 585 625 
646 665 645 626 724 685 705 686 706 
746 725 745 765 726 786 787 806 766 
826 865 845 846 885 905 886 866 906 
925 944 964 965 966 984 1025 945 1046 
1065 1005 985 1085 1026 1106 1086 1105 1066 
1126 1125 1205 1165 1363 1264 1186 1225 1343 
1226 1383 1284 1323 1304 1364 1265 1365 1403 
1324 1285 1345 1366 1384 1385 1346 1424 1444 
1583 1464 1642 1524 1405 1425 1465 1446 1445 
1484 1504 1485 1525 1505 101 1506 1565 1486 
1546 1624 1585 1566 1567 1645 1625 1586 1606 
1626 24 5 1647 27 1646 6 7 67 
46 66 47 87 86 202 106 107 145 
125 164 126 127 185 147 167 188 187 
186 207 208 226 246 227 265 266 267 
247 306 307 287 286 326 366 347 327 
387 386 407 406 367 465 427 446 426 
486 467 447 505 466 506 525 526 545 
546 547 587 567 586 566 606 628 627 
607 687 667 666 688 647 707 727 708 
788 767 747 768 748 808 827 807 828 
867 887 847 868 926 907 888 908 927 
946 967 947 1007 1006 987 986 1068 1047 
1067 1089 1107 1087 1088 1108 1127 1146 1166 
1128 1147 1206 1167 1245 1207 1187 1227 1228 
1208 1247 1266 1246 1267 1305 1286 1325 1287 
1306 1307 1386 1326 1367 1327 1406 1426 1387 
1408 1428 1427 1466 1448 1447 1467 1468 1487 
1488 1526 1507 1527 1508 1587 1548 1568 1528 
1547 1588 1608 1627 1607 1629 1648 1628 9 
8 29 28 1649 68 50 49 48 69 
88 89 90 109 108 129 128 168 149 
169 148 189 228 209 229 248 249 268 
288 289 269 308 348 349 328 329 309 
368 369 388 428 408 409 429 469 449 
448 468 488 508 507 487 528 548 527 
549 589 588 568 569 609 608 629 649 
648 668 689 669 729 709 728 749 770 
769 750 789 790 809 810 829 869 849 
848 870 889 910 890 909 948 949 929 
928 968 969 988 1008 989 1029 1009 1028 
1048 1027 1069 1049 1090 1109 1110 1129 1130 
1168 1169 1149 1148 1188 1209 1210 1189 1229 
1249 1248 1230 1269 1289 1288 1268 1347 1308 
1328 1309 1388 1369 1407 1348 1368 1409 1390 
1410 1391 1411 1429 1451 1450 1430 1431 1449 
1490 1470 1469 1489 1471 1491 1510 1511 1509 
1531 1529 1549 1550 1530 1569 1570 1589 1590 
1611 1609 1631 1630 1610 1651 11 10 1650 
51 30 31 71 91 111 70 110 151 
131 130 171 191 170 150 190 230 210 
231 211 270 251 271 250 291 290 311 
310 351 331 330 350 390 370 371 389 
430 431 410 411 450 451 470 471 510 
489 509 490 491 550 551 530 529 571 
591 570 590 610 650 651 630 611 631 
671 690 691 670 731 710 730 711 771 
751 772 811 830 792 791 831 851 871 
850 891 912 911 892 931 951 930 950 
970 971 990 991 1030 1011 1010 1031 1071 
1051 1050 1070 1092 1091 1111 1112 1131 1132 
1150 1151 1170 1211 1191 1190 1251 1250 1232 
1231 1270 1271 1290 1291 1331 1310 1330 1311 
1329 1349 1350 1370 1371 1351 1389 1392 1393 
1412 1413 1433 1432 1452 1453 1473 1493 1472 
1492 1513 1533 1532 1512 1571 1572 1551 1552 
1612 1591 1613 1593 1592 1652 1632 1633 1653 
13 12 32 33 73 53 52 72 93 
112 113 92 152 153 132 133 193 173 
192 172 213 212 233 232 273 253 272 
252 312 313 292 293 333 353 352 332 
373 392 372 391 413 412 433 453 432 
452 473 472 493 492 511 512 552 531 
532 553 592 572 573 593 613 612 633 
652 653 632 672 693 692 673 713 732 
733 712 753 752 773 813 793 812 794 
832 833 852 853 873 914 913 893 894 
872 932 952 953 933 972 973 992 993 
1013 1032 1033 1012 1072 1073 1052 1053 1093 
1133 1114 1134 1113 1171 1152 1173 1153 1193 
1192 1213 1212 1172 1233 1253 1252 1293 1273 
1292 1272 1313 1312 1332 1333 1373 1372 1352 
1353 1415 1394 1395 1414 1435 1455 1454 1434 
1494 1475 1495 1474 1534 1515 1535 1514 1575 
1553 1573 1574 1555 1554 1614 1594 1595 1615 
1634 1655 1654 1635 35 14 15 34 74 
54 55 75 115 114 95 94 155 134 
154 135 195 194 215 174 175 255 235 
214 234 254 294 274 295 275 315 335 
314 334 354 375 374 355 394 415 393 
414 435 454 455 434 494 495 475 474 
514 515 533 534 513 575 554 555 574 
595 594 614 615 635 634 654 655 675 
694 695 674 714 734 735 715 774 754 
755 775 814 795 815 835 875 854 855 
834 874 895 916 915 954 934 935 955 
975 995 994 974 1014 1035 1034 1015 1055 
1075 1074 1054 1095 1094 1115 1135 1175 1195 
1174 1154 1155 1194 1214 1215 1235 1234 1255 
1254 1275 1274 1295 1294 1315 1335 1334 1314 
1355 1354 1374 1375 1437 1396 1417 1416 1436 
1456 1477 1457 1497 1496 1517 1476 1537 1516 
1557 1536 1576 1556 1577 1597 1637 1596 1617 
1616 1636 17 1656 1657 57 36 37 16 
97 77 56 76 117 116 137 157 96 
136 197 156 177 176 237 196 217 216 
277 256 236 257 297 276 317 296 316 
336 357 337 396 377 376 397 356 437 
395 417 416 436 477 456 457 517 496 
497 476 516 536 537 557 535 556 597 
577 576 637 596 617 616 656 657 636 
677 676 697 717 696 737 757 716 736 
756 817 797 776 777 816 837 857 796 
836 877 897 856 876 896 917 937 957 
936 977 997 976 956 1037 996 1016 1017 
1057 1077 1056 1036 1096 1117 1076 1097 1156 
1137 1157 1136 1116 1177 1196 1197 1176 1237 
1216 1217 1236 1257 1277 1256 1276 1297 1317 
1296 1316 1337 1336 1357 1376 1377 1397 1356 
1598 519 1618 499 1638 539 559 1658 599 
38 579 18 58 639 78 619 118 659 
679 98 138 158 719 699 759 178 739 
198 218 799 238 779 819 278 839 859 
258 298 899 318 338 879 919 939 378 
358 418 398 959 979 438 999 458 1019 
1059 1039 498 478 538 518 1099 1079 1119 
1139 558 578 598 1199 618 1179 1159 658 
1219 638 1239 678 1279 698 1259 738 1299 
1319 718 758 1339 778 1359 798 1399 818 
1379 838 1419 858 878 1439 1459 898 1479 
918 938 1519 958 1539 1499 978 1579 1559 
998 1018 1038 1619 1599 1058 1659 1639 1078 
1098 19 1118 39 1138 1178 59 1158 79 
1198 99 1218 119 1258 139 159 1238 1278 
179 199 1298 219 1318 1338 1378 259 1358 
239 279 299 1418 1398 319 1438 1458 339 
399 1498 1478 359 379 419 1538 1518 439 
1558 479 1578 459 2401 2400 2398 2399 2404 
2403 2405 2402 2407 2409 2406 2408 2413 2411 
2410 2412 2415 2416 2417 2414 2419 2418 2421 
2420 2424 2427 2425 2422 2423 2426 2430 2431 
2429 2428 2433 2432 2434 2435 2436 2439 2438 
2437 2440 2441 2442 2443 2445 2446 2444 2447 
2451 2449 2450 2448 2455 2453 2454 2452 2456 
2458 2459 2457 2463 2461 2460 2462 2465 2464 
2466 2467 2469 2471 2470 2468 2474 2475 2472 
2473 2477 2478 2476 2481 2479 2480 2485 2484 
2483 2482 2486 2489 2488 2487 2493 2492 2490 
2491 2497 2496 2495 2494 2501 2500 2499 2498 
2502 2505 2503 2504 2509 2508 2507 2506 2511 
2512 2513 2510 2516 2514 2515 2517 2519 2521 
2518 2520 2524 2525 2522 2523 2527 2528 2529 
2526 2530 2531 2532 2533 2534 2535 2536 2537 
2538 2539 2540 2541 2543 2542 2544 2545 2546 
2547 2548 2551 2550 2549 2554 2555 2553 2552 
2558 2556 2557 2559 2560 2561 2562 2563 
FIELD FieldData 7
r 3 2798 float
-0.5375 -0.4875 0 -0.5125 -0.4625 0 -0.5125 -0.4875 0 
-0.5375 -0.4625 0 -0.487805 -0.4875 0 -0.463415 -0.4625 0 
-0.487805 -0.4625 0 -0.463415 -0.4875 0 -0.439024 -0.4875 0 
-0.439024 -0.4625 0 -0.414634 -0.4625 0 -0.414634 -0.4875 0 
-0.365854 -0.4875 0 -0.390244 -0.4625 0 -0.390244 -0.4875 0 
-0.365854 -0.4625 0 -0.341463 -0.4625 0 -0.341463 -0.4875 0 
-0.317073 -0.4625 0 -0.317073 -0.4875 0 -0.292683 -0.4875 0 
-0.268293 -0.4875 0 -0.268293 -0.4625 0 -0.292683 -0.4625 0 
-0.219512 -0.4625 0 -0.243902 -0.4875 0 -0.219512 -0.4875 0 
-0.243902 -0.4625 0 -0.170732 -0.4625 0 -0.170732 -0.4875 0 
-0.195122 -0.4625 0 -0.195122 -0.4875 0 -0.146341 -0.4625 0 
-0.121951 -0.4875 0 -0.121951 -0.4625 0 -0.146341 -0.4875 0 
-0.097561 -0.4875 0 -0.0731707 -0.4875 0 -0.0731707 -0.4625 0 
-0.097561 -0.4625 0 -1.86265e-08 -0.4625 0 -0.0243903 -0.4625 0 
-1.86265e-08 -0.4875 0 -0.0243903 -0.4875 0 -0.0487805 -0.4875 0 
-0.0487805 -0.4625 0 0.0243902 -0.4625 0 0.0487805 -0.4625 0 
0.0487805 -0.4875 0 0.0243902 -0.4875 0 0.0731707 -0.4625 0 
0.097561 -0.4875 0 0.0731707 -0.4875 0 0.097561 -0.4625 0 
0.146341 -0.4625 0 0.121951 -0.4625 0 0.121951 -0.4875 0 
0.146341 -0.4875 0 0.195122 -0.4875 0 0.170732 -0.4875 0 
0.195122 -0.4625 0 0.170732 -0.4625 0 0.243902 -0.4875 0 
0.219512 -0.4625 0 0.243902 -0.4625 0 0.219512 -0.4875 0 
0.292683 -0.4625 0 0.292683 -0.4875 0 0.268293 -0.4625 0 
0.268293 -0.4875 0 0.317073 -0.4875 0 0.341463 -0.4625 0 
0.317073 -0.4625 0 0.341463 -0.4875 0 0.365854 -0.4875 0 
0.390244 -0.4875 0 0.390244 -0.4625 0 0.365854 -0.4625 0 
0.414634 -0.4625 0 0.439024 -0.4625 0 0.414634 -0.4875 0 
0.439024 -0.4875 0 0.487805 -0.4875 0 0.463415 -0.4625 0 
0.463415 -0.4875 0 0.487805 -0.4625 0 0.5125 -0.4625 0 
0.5375 -0.4625 0 0.5125 -0.4875 0 0.5375 -0.4875 0 
-0.5375 -0.4125 0 -0.5125 -0.4375 0 -0.5125 -0.4125 0 
-0.5375 -0.4375 0 -0.48837 -0.437001 0 -0.466142 -0.435079 0 
-0.46737 -0.404992 0 -0.488575 -0.410928 0 -0.420232 -0.413555 0 
-0.44583 -0.413948 0 -0.400218 -0.404009 0 -0.417126 -0.436837 0 
-0.442257 -0.438566 0 -0.381801 -0.418609 0 -0.393577 -0.438326 0 
-0.356168 -0.411349 0 -0.365568 -0.43835 0 -0.318217 -0.437561 0 
-0.342015 -0.436974 0 -0.308296 -0.412562 0 -0.332785 -0.411943 0 
-0.270891 -0.436939 0 -0.261282 -0.410491 0 -0.284479 -0.411099 0 
-0.294169 -0.437205 0 -0.239433 -0.407165 0 -0.217761 -0.407869 0 
-0.226612 -0.435199 0 -0.248065 -0.4362 0 -0.204909 -0.436526 0 
-0.182701 -0.436338 0 -0.151278 -0.408996 0 -0.196134 -0.40906 0 
-0.173747 -0.40958 0 -0.160349 -0.436532 0 -0.107233 -0.410282 0 
-0.129504 -0.407948 0 -0.138308 -0.43598 0 -0.116466 -0.436299 0 
-0.0935676 -0.437174 0 -0.0699668 -0.43739 0 -0.060105 -0.412408 0 
-0.0839958 -0.411589 0 -0.0458803 -0.437729 0 -0.0215739 -0.437704 0 
-0.0118253 -0.412991 0 -0.0360385 -0.412835 0 0.0282779 -0.438382 0 
0.00284583 -0.43788 0 0.0137535 -0.414759 0 0.0400836 -0.415412 0 
0.0915797 -0.413731 0 0.0662962 -0.414626 0 0.0792869 -0.437982 0 
0.0540824 -0.438366 0 0.146644 -0.419082 0 0.130129 -0.438505 0 
0.116232 -0.415415 0 0.104204 -0.438568 0 0.184925 -0.438531 0 
0.177008 -0.41664 0 0.158454 -0.439202 0 0.212109 -0.439525 0 
0.205104 -0.417241 0 0.240672 -0.439318 0 0.23159 -0.417921 0 
0.298693 -0.439024 0 0.290213 -0.418671 0 0.270163 -0.439602 0 
0.260534 -0.419737 0 0.338924 -0.400754 0 0.321878 -0.418946 0 
0.326748 -0.439343 0 0.383416 -0.416912 0 0.354028 -0.439322 0 
0.381556 -0.438632 0 0.354116 -0.418398 0 0.408892 -0.439712 0 
0.41258 -0.418103 0 0.436843 -0.438878 0 0.437398 -0.41512 0 
0.462534 -0.413049 0 0.487694 -0.438743 0 0.462112 -0.437707 0 
0.487025 -0.415331 0 0.5375 -0.4375 0 0.5375 -0.4125 0 
0.5125 -0.4375 0 0.5125 -0.4125 0 -0.5375 -0.3875 0 
-0.5125 -0.3875 0 -0.5125 -0.3625 0 -0.5375 -0.3625 0 
-0.452834 -0.384569 0 -0.471366 -0.369983 0 -0.490782 -0.353341 0 
-0.489052 -0.384277 0 -0.429197 -0.390701 0 -0.415008 -0.371667 0 
-0.438562 -0.362177 0 -0.358136 -0.373473 0 -0.371223 -0.393209 0 
-0.37947 -0.360603 0 -0.393821 -0.381237 0 -0.315177 -0.363664 0 
-0.338734 -0.387035 0 -0.337646 -0.358197 0 -0.314376 -0.387929 0 
-0.266239 -0.384169 0 -0.291218 -0.360629 0 -0.28969 -0.386028 0 
-0.268107 -0.35753 0 -0.244138 -0.380005 0 -0.24598 -0.352854 0 
-0.201258 -0.352565 0 -0.221921 -0.37969 0 -0.200228 -0.38095 0 
-0.223316 -0.35257 0 -0.179462 -0.355993 0 -0.155091 -0.382252 0 
-0.177995 -0.382867 0 -0.156686 -0.355753 0 -0.110614 -0.383324 0 
-0.134536 -0.352021 0 -0.112409 -0.356227 0 -0.132892 -0.379901 0 
-0.0634175 -0.387 0 -0.0658527 -0.361443 0 -0.0894308 -0.359851 0 
-0.087293 -0.385753 0 -0.0396506 -0.387375 0 -0.0422975 -0.361608 0 
-0.0189922 -0.361465 0 -0.0161345 -0.387586 0 0.0288899 -0.367793 0 
0.00835312 -0.390879 0 0.00472408 -0.36578 0 0.0337357 -0.392122 0 
0.053175 -0.367305 0 0.0590417 -0.391604 0 0.0771667 -0.365446 0 
0.0839636 -0.389419 0 0.107535 -0.388898 0 0.148876 -0.352033 0 
0.101811 -0.362778 0 0.127442 -0.373531 0 0.133675 -0.398377 0 
0.180568 -0.380251 0 0.173624 -0.356537 0 0.152457 -0.376696 0 
0.196167 -0.396441 0 0.19756 -0.358013 0 0.162457 -0.398621 0 
0.225607 -0.394826 0 0.21308 -0.375859 0 0.248163 -0.37566 0 
0.232897 -0.35962 0 0.298044 -0.356657 0 0.278988 -0.398022 0 
0.252205 -0.397946 0 0.266472 -0.354376 0 0.275608 -0.375356 0 
0.302559 -0.378528 0 0.326591 -0.357352 0 0.329805 -0.379074 0 
0.308407 -0.39995 0 0.362006 -0.356571 0 0.385188 -0.379898 0 
0.389238 -0.35892 0 0.36882 -0.397426 0 0.354967 -0.377032 0 
0.413829 -0.378047 0 0.402263 -0.398505 0 0.422588 -0.357459 0 
0.445178 -0.370405 0 0.433541 -0.392895 0 0.480066 -0.372113 0 
0.489611 -0.39161 0 0.460925 -0.39 0 0.461807 -0.354528 0 
0.490045 -0.351635 0 0.5375 -0.3875 0 0.5125 -0.3875 0 
0.5375 -0.3625 0 0.5125 -0.3625 0 -0.5375 -0.3125 0 
-0.5375 -0.3375 0 -0.5125 -0.3125 0 -0.5125 -0.3375 0 
-0.457184 -0.348257 0 -0.477173 -0.334386 0 -0.458071 -0.316018 0 
-0.490683 -0.315825 0 -0.418586 -0.310622 0 -0.438958 -0.328681 0 
-0.42105 -0.342371 0 -0.399557 -0.320789 0 -0.378735 -0.301748 0 
-0.358759 -0.344431 0 -0.357778 -0.312918 0 -0.378008 -0.330513 0 
-0.3995 -0.348579 0 -0.301519 -0.309881 0 -0.317843 -0.337195 0 
-0.339172 -0.32838 0 -0.324027 -0.307324 0 -0.250346 -0.325835 0 
-0.278572 -0.305366 0 -0.272171 -0.331288 0 -0.295159 -0.335084 0 
-0.205146 -0.32437 0 -0.227504 -0.326206 0 -0.167493 -0.303219 0 
-0.183467 -0.327927 0 -0.160844 -0.329686 0 -0.10143 -0.304681 0 
-0.116723 -0.328111 0 -0.139021 -0.324444 0 -0.0787265 -0.308754 0 
-0.0552589 -0.310047 0 -0.0942421 -0.333044 0 -0.0711232 -0.335414 0 
-0.0082255 -0.311333 0 -0.0477295 -0.335768 0 -0.0247066 -0.334895 0 
-0.0319217 -0.308659 0 -0.00143567 -0.338593 0 0.0209281 -0.341438 0 