# vtk DataFile Version 4.0
vtk output
ASCII
DATASET POLYDATA
FIELD FieldData 4
domain 1 3 string
domain_min:-20|-15
domain_max:20|15
cell_size:0.05

variables 1 2 string
dt:0.000372678
T:1.16718

constants 1 10 string
xsize:2
ysize:1
csize:0.05
dx:0.0238095
h:0.025
rho0:1000
mass:0.566894
g:1|0
c:13.4164
CFL:0.2

functions 1 8 string
time:T=(T+dt)
continuity:rho_dot=((-(rho*sph_D00(v,mass,rho,Wp52220)))+(((0.1*c)*h)*sph_L00(rho,mass,rho,Wp52220)))
irho:rho=(rho+int1((rho_dot,dt))
EOS:p=(((c^2)*(rho-rho0))+10000)
euler:a=if((gid,(0*v),(((-((1/rho)*sph_G11(p,mass,rho,Wp52220)))+(0.01*sph_L00(v,mass,rho,Wp52220)))+g))
vel:v=(v+int1((a,dt))
pos:r=(r+int1((v,dt))
new_dt:dt=(CFL*min((sqrt(((h/fmax(magnitude((a)))),(h/c)))

POINTS 2798 float
-0.5125 -0.4875 0 -0.5375 -0.4625 0 -0.5375 -0.4875 0 
-0.5125 -0.4625 0 -0.487805 -0.4875 0 -0.463415 -0.4875 0 
-0.463415 -0.4625 0 -0.487805 -0.4625 0 -0.414634 -0.4625 0 
-0.414634 -0.4875 0 -0.439024 -0.4875 0 -0.439024 -0.4625 0 
-0.365854 -0.4625 0 -0.365854 -0.4875 0 -0.390244 -0.4625 0 
-0.390244 -0.4875 0 -0.341463 -0.4875 0 -0.341463 -0.4625 0 
-0.317073 -0.4875 0 -0.317073 -0.4625 0 -0.292683 -0.4875 0 
-0.292683 -0.4625 0 -0.268293 -0.4625 0 -0.268293 -0.4875 0 
-0.243902 -0.4875 0 -0.243902 -0.4625 0 -0.219512 -0.4625 0 
-0.219512 -0.4875 0 -0.195122 -0.4875 0 -0.195122 -0.4625 0 
-0.170732 -0.4875 0 -0.170732 -0.4625 0 -0.121951 -0.4625 0 
-0.121951 -0.4875 0 -0.146341 -0.4625 0 -0.146341 -0.4875 0 
-0.097561 -0.4875 0 -0.097561 -0.4625 0 -0.0731707 -0.4875 0 
-0.0731707 -0.4625 0 -0.0243903 -0.4875 0 -1.86265e-08 -0.4625 0 
-0.0243903 -0.4625 0 -0.0487805 -0.4625 0 -1.86265e-08 -0.4875 0 
-0.0487805 -0.4875 0 0.0487805 -0.4625 0 0.0487805 -0.4875 0 
0.0243902 -0.4625 0 0.0243902 -0.4875 0 0.097561 -0.4875 0 
0.097561 -0.4625 0 0.0731707 -0.4625 0 0.0731707 -0.4875 0 
0.146341 -0.4625 0 0.146341 -0.4875 0 0.121951 -0.4875 0 
0.121951 -0.4625 0 0.195122 -0.4875 0 0.170732 -0.4875 0 
0.195122 -0.4625 0 0.170732 -0.4625 0 0.219512 -0.4625 0 
0.243902 -0.4625 0 0.243902 -0.4875 0 0.219512 -0.4875 0 
0.268293 -0.4875 0 0.292683 -0.4625 0 0.268293 -0.4625 0 
0.292683 -0.4875 0 0.341463 -0.4625 0 0.317073 -0.4875 0 
0.341463 -0.4875 0 0.317073 -0.4625 0 0.390244 -0.4875 0 
0.365854 -0.4625 0 0.365854 -0.4875 0 0.390244 -0.4625 0 
0.414634 -0.4625 0 0.439024 -0.4625 0 0.414634 -0.4875 0 
0.439024 -0.4875 0 0.487805 -0.4875 0 0.487805 -0.4625 0 
0.463415 -0.4875 0 0.463415 -0.4625 0 0.5125 -0.4875 0 
0.5375 -0.4875 0 0.5375 -0.4625 0 0.5125 -0.4625 0 
-0.5375 -0.4125 0 -0.5125 -0.4125 0 -0.5125 -0.4375 0 
-0.5375 -0.4375 0 -0.454387 -0.409686 0 -0.487755 -0.437671 0 
-0.489128 -0.411637 0 -0.466463 -0.432514 0 -0.405753 -0.413413 0 
-0.41958 -0.4376 0 -0.444509 -0.438711 0 -0.431373 -0.413837 0 
-0.361595 -0.408546 0 -0.373483 -0.434253 0 -0.394965 -0.437413 0 
-0.383689 -0.406163 0 -0.351665 -0.437183 0 -0.328777 -0.436397 0 
-0.315843 -0.408904 0 -0.338819 -0.41067 0 -0.306565 -0.436139 0 
-0.269811 -0.410798 0 -0.283984 -0.437012 0 -0.292897 -0.41014 0 
-0.261005 -0.43648 0 -0.24788 -0.405839 0 -0.239804 -0.434426 0 
-0.218427 -0.435969 0 -0.226447 -0.407333 0 -0.204394 -0.409562 0 
-0.151114 -0.434944 0 -0.160873 -0.404814 0 -0.196031 -0.43721 0 
-0.181696 -0.412037 0 -0.172358 -0.436655 0 -0.139332 -0.410717 0 
-0.115798 -0.413385 0 -0.128276 -0.437764 0 -0.103839 -0.43802 0 
-0.0532937 -0.413127 0 -0.0618631 -0.437117 0 -0.07293 -0.402058 0 
-0.0935507 -0.407777 0 -0.0824766 -0.432725 0 -0.018181 -0.431089 0 
-0.00955396 -0.404994 0 -0.0326889 -0.406101 0 -0.0376859 -0.438269 0 
0.0242193 -0.434989 0 0.0114981 -0.409443 0 0.0464224 -0.438331 0 
0.00204215 -0.437571 0 0.0348061 -0.409713 0 0.0677693 -0.432668 0 
0.0889537 -0.437708 0 0.0572292 -0.409253 0 0.0928329 -0.414002 0 
0.148978 -0.44014 0 0.112888 -0.405733 0 0.12988 -0.425986 0 
0.140175 -0.403101 0 0.113488 -0.439231 0 0.189736 -0.416909 0 
0.178051 -0.438891 0 0.161165 -0.418942 0 0.248856 -0.421692 0 
0.235372 -0.439904 0 0.230487 -0.401536 0 0.217362 -0.419396 0 
0.205927 -0.439491 0 0.266856 -0.440244 0 0.283032 -0.424559 0 
0.26458 -0.405066 0 0.300176 -0.407781 0 0.318608 -0.425601 0 
0.30132 -0.441106 0 0.33673 -0.440405 0 0.332419 -0.404479 0 
0.367717 -0.440187 0 0.399441 -0.406495 0 0.366289 -0.402698 0 
0.351375 -0.421023 0 0.383356 -0.423118 0 0.43635 -0.439277 0 
0.400588 -0.441038 0 0.438094 -0.410616 0 0.418122 -0.426309 0 
0.487616 -0.415665 0 0.487404 -0.438841 0 0.461539 -0.437913 0 
0.461279 -0.41499 0 0.5125 -0.4125 0 0.5125 -0.4375 0 
0.5375 -0.4125 0 0.5375 -0.4375 0 -0.5375 -0.3875 0 
-0.5375 -0.3625 0 -0.5125 -0.3625 0 -0.5125 -0.3875 0 
-0.458567 -0.373927 0 -0.478682 -0.359366 0 -0.472633 -0.395995 0 
-0.490941 -0.379357 0 -0.439309 -0.386171 0 -0.416196 -0.390245 0 
-0.412288 -0.365823 0 -0.435163 -0.35847 0 -0.391273 -0.383107 0 
-0.375702 -0.365216 0 -0.360773 -0.382896 0 -0.337251 -0.384225 0 
-0.340948 -0.359383 0 -0.313391 -0.382892 0 -0.31766 -0.356833 0 
-0.269809 -0.357902 0 -0.293664 -0.359139 0 -0.265525 -0.383459 0 
-0.289196 -0.384701 0 -0.222272 -0.380534 0 -0.205029 -0.358938 0 
-0.243351 -0.376433 0 -0.176847 -0.382333 0 -0.164924 -0.360269 0 
-0.198168 -0.38391 0 -0.112469 -0.35508 0 -0.104207 -0.383321 0 
-0.133426 -0.360478 0 -0.149532 -0.380838 0 -0.126104 -0.387079 0 
-0.0860502 -0.371862 0 -0.0686452 -0.350892 0 -0.0639048 -0.379469 0 
-0.0421946 -0.381867 0 -0.0196211 -0.378015 0 -0.0461821 -0.354276 0 
-0.0240933 -0.351824 0 -0.00166062 -0.350875 0 0.0208768 -0.356551 0 
0.00260511 -0.379155 0 0.0470658 -0.382463 0 0.0245949 -0.38379 0 
0.0434046 -0.355012 0 0.0668316 -0.371442 0 0.0758176 -0.397296 0 
0.0760069 -0.35082 0 0.0930541 -0.381141 0 0.130608 -0.363987 0 
0.118543 -0.383292 0 0.100843 -0.359377 0 0.149066 -0.381788 0 
0.170714 -0.396996 0 0.197893 -0.361417 0 0.159453 -0.359708 0 
0.179983 -0.376004 0 0.199805 -0.395779 0 0.246759 -0.385602 0 
0.234101 -0.363264 0 0.215658 -0.379389 0 0.295673 -0.370277 0 
0.264533 -0.370825 0 0.281971 -0.390135 0 0.279466 -0.351023 0 
0.347305 -0.385133 0 0.31389 -0.388119 0 0.343136 -0.350666 0 
0.309886 -0.35068 0 0.327881 -0.368771 0 0.362755 -0.367475 0 
0.380676 -0.353059 0 0.381702 -0.386017 0 0.399898 -0.374212 0 
0.419944 -0.36422 0 0.438605 -0.38101 0 0.445727 -0.354312 0 
0.418745 -0.395196 0 0.460398 -0.390732 0 0.489129 -0.369907 0 
0.486078 -0.393425 0 0.465915 -0.366281 0 0.5125 -0.3625 0 
0.5375 -0.3875 0 0.5375 -0.3625 0 0.5125 -0.3875 0 
-0.5125 -0.3375 0 -0.5375 -0.3375 0 -0.5375 -0.3125 0 
-0.5125 -0.3125 0 -0.455477 -0.34547 0 -0.453824 -0.306111 0 
-0.470079 -0.325567 0 -0.490241 -0.340139 0 -0.489874 -0.309875 0 
-0.401986 -0.319154 0 -0.422952 -0.305509 0 -0.438935 -0.325806 0 
-0.418493 -0.337498 0 -0.359804 -0.346937 0 -0.386385 -0.300044 0 
-0.394946 -0.349117 0 -0.363962 -0.311604 0 -0.379175 -0.330679 0 
-0.320772 -0.306161 0 -0.322826 -0.332123 0 -0.34462 -0.327552 0 
-0.29703 -0.307303 0 -0.298594 -0.332746 0 -0.275655 -0.332546 0 
-0.27378 -0.304372 0 -0.254186 -0.323039 0 -0.211002 -0.301457 0 
-0.226302 -0.349647 0 -0.247909 -0.349245 0 -0.233598 -0.318601 0 
-0.212202 -0.328836 0 -0.150687 -0.341403 0 -0.186845 -0.300328 0 
-0.165849 -0.32356 0 -0.189311 -0.325923 0 -0.184779 -0.34993 0 
-0.143619 -0.310281 0 -0.128637 -0.330589 0 -0.110425 -0.321073 0 
-0.062575 -0.325764 0 -0.0929935 -0.345043 0 -0.0858885 -0.321491 0 
-0.0190039 -0.323783 0 -0.0403359 -0.326001 0 0.0407267 -0.314657 0 
0.0253278 -0.330605 0 0.00375661 -0.324328 0 0.072685 -0.317411 0 
0.0558483 -0.335453 0 0.0919858 -0.332048 0 0.0938583 -0.303401 0 
0.114843 -0.316669 0 0.137392 -0.313669 0 0.141644 -0.340428 0 
0.116885 -0.341482 0 0.160657 -0.300751 0 0.17859 -0.344286 0 
0.181996 -0.310242 0 0.197712 -0.329463 0 0.161471 -0.327231 0 
0.216471 -0.345897 0 0.236137 -0.33046 0 0.218131 -0.314368 0 
0.269785 -0.326346 0 0.295117 -0.330445 0 0.253089 -0.346991 0 
0.25208 -0.311162 0 0.286513 -0.305539 0 0.313474 -0.312486 0 
0.32662 -0.332606 0 0.346456 -0.316477 0 0.361859 -0.335401 0 
0.366575 -0.302148 0 0.381579 -0.32208 0 0.427676 -0.313249 0 
0.401139 -0.344057 0 0.405351 -0.319063 0 0.427182 -0.339542 0 
0.48702 -0.321117 0 0.450048 -0.321835 0 0.488265 -0.344978 0 
0.465122 -0.337983 0 0.46664 -0.304504 0 0.5125 -0.3375 0 
0.5375 -0.3125 0 0.5375 -0.3375 0 0.5125 -0.3125 0 
-0.5125 -0.2875 0 -0.5375 -0.2625 0 -0.5125 -0.2625 0 
-0.5375 -0.2875 0 -0.491167 -0.276242 0 -0.473556 -0.291991 0 
-0.457678 -0.270714 0 -0.477283 -0.256572 0 -0.401541 -0.252315 0 
-0.422215 -0.267418 0 -0.440579 -0.251955 0 -0.43929 -0.286189 0 
-0.407262 -0.286461 0 -0.365341 -0.283678 0 -0.386701 -0.271056 0 
-0.368508 -0.253372 0 -0.346341 -0.269007 0 -0.324609 -0.277649 0 
-0.301965 -0.281546 0 -0.304673 -0.255212 0 -0.342673 -0.298471 0 
-0.259059 -0.265626 0 -0.279361 -0.278184 0 -0.28166 -0.250776 0 
-0.253321 -0.292626 0 -0.231701 -0.290544 0 -0.216467 -0.269782 0 
-0.238139 -0.261226 0 -0.173537 -0.266327 0 -0.194289 -0.277051 0 
-0.164642 -0.295322 0 -0.151191 -0.275233 0 -0.108579 -0.296345 0 
-0.129442 -0.263618 0 -0.107088 -0.270218 0 -0.130674 -0.291931 0 
-0.0604223 -0.299844 0 -0.0595857 -0.273749 0 -0.0830764 -0.271341 0 
-0.0844008 -0.296393 0 -0.0378982 -0.297331 0 -0.0143781 -0.269326 0 
-0.0368713 -0.269239 0 -0.0160265 -0.296167 0 0.00729584 -0.300029 0 
0.0461822 -0.276153 0 0.027703 -0.261091 0 0.0285273 -0.29367 0 
0.00784235 -0.273237 0 0.0664636 -0.261176 0 0.0785886 -0.282794 0 
0.0593714 -0.297519 0 0.0985417 -0.270581 0 0.130852 -0.264317 0 
0.114336 -0.288654 0 0.137626 -0.287784 0 0.110863 -0.250477 0 
0.164783 -0.278312 0 0.179623 -0.252565 0 0.153473 -0.257593 0 
0.188144 -0.277531 0 0.23057 -0.255951 0 0.23383 -0.294867 0 
0.217147 -0.276908 0 0.201102 -0.296719 0 0.203845 -0.254709 0 
0.248411 -0.274562 0 0.2807 -0.273047 0 0.266796 -0.291261 0 
0.258552 -0.253545 0 0.304187 -0.288626 0 0.332614 -0.296933 0 
0.330444 -0.27397 0 0.305691 -0.265289 0 0.338965 -0.251729 0 
[...]
POINT_DATA 2798
SCALARS id float
LOOKUP_TABLE default
2620 2601 2600 2621 2640 2642 2643 2641 2647 
2646 2644 2645 2651 2650 2649 2648 2652 2653 
2654 2655 2656 2657 2659 2658 2660 2661 2663 
2662 2664 2665 2666 2667 2671 2670 2669 2668 
2672 2673 2674 2675 2678 2681 2679 2677 2680 
2676 2685 2684 2683 2682 2688 2689 2687 2686 
2693 2692 2690 2691 2696 2694 2697 2695 2699 
2701 2700 2698 2702 2705 2703 2704 2709 2706 
2708 2707 2712 2711 2710 2713 2715 2717 2714 
2716 2720 2721 2718 2719 2722 2742 2743 2723 
2603 2623 2622 2602 1697 1660 1661 1678 1750 
1714 1696 1715 1805 1768 1732 1787 1786 1804 
1841 1823 1822 1877 1840 1859 1858 1895 1876 
1894 1913 1931 1948 1967 1912 1949 1930 1985 
2003 1966 1984 2057 2020 2039 2021 2002 2056 
2093 2075 2038 2092 2111 2110 2074 2129 2128 
2146 2147 2165 2182 2184 2183 2202 2164 2219 
2200 2201 2255 2236 2256 2237 2218 2254 2273 
2274 2292 2291 2272 2290 2310 2308 2346 2328 
2309 2327 2344 2326 2364 2345 2381 2380 2362 
2363 2725 2724 2745 2744 2604 2605 2625 2624 
1698 1680 1679 1662 1716 1733 1751 1734 1769 
1788 1806 1824 1825 1842 1843 1879 1861 1878 
1860 1914 1933 1896 1950 1968 1932 2023 2022 
2005 1986 2004 2040 2059 2058 2076 2094 2077 
2095 2113 2131 2112 2148 2130 2149 2167 2166 
2186 2185 2222 2203 2204 2221 2220 2258 2240 
2239 2238 2275 2276 2257 2295 2294 2293 2278 
2329 2311 2313 2296 2312 2330 2331 2347 2348 
2349 2366 2368 2365 2383 2384 2382 2367 2727 
2746 2747 2726 2626 2606 2607 2627 1717 1718 
1699 1663 1681 1771 1753 1735 1752 1807 1790 
1770 1808 1789 1863 1844 1826 1881 1862 1880 
1899 1898 1953 1915 1897 1916 1934 1987 1970 
1969 1952 1951 2006 2024 2042 2078 2041 2060 
2114 2096 2169 2150 2132 2187 2168 2205 2189 
2190 2207 2223 2206 2208 2241 2225 2242 2224 
2259 2260 2243 2279 2297 2277 2261 2280 2298 
2314 2315 2332 2316 2333 2352 2350 2334 2351 
2387 2369 2385 2386 2370 2728 2749 2748 2729 
2628 2609 2629 2608 1664 1700 1719 1682 1791 
1754 1737 1736 1772 1827 1809 1828 1846 1864 
1882 1883 1845 1918 1900 1901 1917 1935 1954 
1936 1989 1971 1988 2007 2043 2026 2044 2025 
2079 2080 2062 2061 2097 2116 2098 2115 2133 
2170 2152 2151 2134 2171 2172 2188 2155 2156 
2173 2191 2139 2174 2157 2140 2209 2210 2244 
2227 2226 2192 2245 2263 2262 2228 2281 2299 
2264 2246 2229 2282 2265 2283 2300 2317 2318 
2336 2353 2335 2354 2371 2388 2389 2750 2731 
2730 2751 2630 2610 2611 2631 1702 1665 1666 
1683 1701 1792 1720 1773 1755 1829 1810 1847 
1884 1848 1866 1865 1919 1920 1902 1956 1938 
1955 1937 1991 1973 1990 1972 2008 2010 2027 
2045 2009 2028 2046 2064 2081 2063 2099 2100 
2117 2082 2118 2135 2136 2153 2137 2120 2154 
2121 2138 2071 2122 2123 2053 2052 2089 2141 
2158 2193 2159 2175 2036 2211 2054 2177 2124 
1929 2212 2072 2194 2125 2230 2247 2284 2142 
2266 2248 2337 2390 2391 2372 2267 2753 2732 
2752 2733 2612 2632 2613 2633 1703 1667 1684 
1721 1756 1774 1738 1830 1793 1812 1811 1868 
1813 1831 1867 1849 1903 1885 1921 1922 1904 
1940 1924 1939 1957 1974 1977 1976 1975 1993 
1992 1994 2011 2065 2047 2029 2012 2030 2048 
2083 2066 2101 2103 2084 2119 2102 2050 2086 
2068 2104 2085 2033 2069 2087 2105 2088 2106 
2070 1857 2051 1839 2000 2107 2176 180 2035 
1946 1911 1893 1821 21 1522 1581 2018 1362 
1441 1875 2195 340 2355 2301 2090 2231 2734 
2755 2735 2754 2635 2615 2634 2614 1669 1668 
1722 1685 1776 1758 1757 1739 1775 1832 1794 
1795 1833 1815 1850 1851 1869 1834 1816 1870 
1886 1923 1852 1887 1871 1817 1941 1958 1905 
1835 1959 1960 1925 1995 1944 1978 2013 2031 
2014 1996 1979 2049 1997 1874 1962 2067 80 
2032 2015 1785 1999 1980 2016 1998 2017 1981 
1963 2034 1982 1964 1803 1 40 1600 1928 
1201 1838 1361 1541 1561 140 120 1481 1521 
1461 280 2213 2373 1620 2737 2757 2736 2756 
2617 2636 2616 2637 1723 1686 1740 1704 1759 
1741 1760 1777 1814 1761 1778 1796 1762 1780 
1779 1691 1726 1727 1797 1674 1100 1745 1711 
1781 1763 1728 1746 1798 1180 1906 1888 1799 
1695 1943 1927 1889 1890 1942 1961 1853 1909 
1926 1856 1908 1801 1945 1748 1819 1837 1873 
1818 1380 1892 1891 1731 1910 1560 1712 1749 
1802 1713 160 1820 1767 1580 1261 1241 1540 
1181 1281 1766 1420 1141 1301 1161 100 1460 
1122 20 1221 60 0 1341 1183 1321 320 
2738 2739 2758 2759 2564 2565 2567 2566 2569 
2568 2570 2571 2573 2574 2572 2575 2578 2576 
2577 2579 2582 2583 2580 2581 2586 2584 2587 
2585 2590 2589 2588 2591 2595 2593 2592 2594 
2596 2599 2597 2598 2638 2639 2619 2618 1724 
1687 1705 1670 1671 1688 1742 1706 1725 1743 
1708 1672 1707 1673 1744 2361 800 1689 2343 
2145 461 1140 1709 1710 1020 1120 1676 762 
1080 1675 1060 542 2397 820 462 761 1783 
900 601 1693 482 1220 780 1764 1160 1907 
1872 1280 1836 1855 1854 1765 1729 1300 1782 
1500 881 1730 1747 1001 1784 1360 802 1520 
1040 861 1440 1041 1480 1101 1081 822 1320 
941 1102 1121 1400 862 1242 981 1062 1202 
2760 2741 2761 2740 2765 2762 2764 2763 2767 
2766 2768 2769 2771 2773 2770 2772 2777 2774 
2776 2775 2780 2778 2779 2781 2784 2783 2785 
2782 2786 2788 2787 2789 2793 2792 2790 2791 
2797 2794 2795 2796 1303 2214 1283 2250 1523 
1582 2126 2215 2303 201 300 2374 2161 2179 
2251 2357 2234 41 161 2339 2252 2198 2216 
2305 2233 2375 2393 2323 2180 2358 2055 2321 
2376 2304 2359 2163 1983 2360 2395 2109 2287 
2270 2235 2394 640 500 2396 2253 2306 2377 
2341 341 2324 840 2307 2342 2271 2217 2199 
680 460 2325 2288 2127 660 223 441 2378 
421 1690 700 2289 860 561 620 560 481 
740 2379 720 442 422 521 501 363 541 
1692 1800 920 1200 721 661 1694 443 880 
1677 621 701 463 722 1340 423 1240 682 
681 1260 940 960 980 921 641 703 801 
781 901 782 742 1000 723 783 1061 741 
843 2285 1142 942 1082 1021 1282 962 1401 
883 1262 2319 2178 1222 1182 1601 2160 1381 
1243 1640 2249 1184 220 2338 1203 2302 260 
1421 1322 1023 240 1402 1947 2392 1502 2320 
2143 1342 1204 2232 2356 1382 1124 1004 1185 
1302 1105 1263 1164 1145 2196 1562 1483 1106 
1086 1422 1501 2108 1482 1264 1383 1641 1544 
1423 200 1602 1463 1344 162 1503 1564 1563 
81 1443 2162 141 143 61 42 2197 2268 
1622 360 182 83 2037 2019 23 2286 2073 
2269 163 3 22 2001 1643 2340 480 63 
440 380 2091 2322 221 281 520 400 43 
420 144 44 261 241 362 321 2181 105 
124 540 302 282 600 580 242 301 263 
224 283 361 262 381 264 342 244 401 
323 303 382 402 343 324 383 322 364 
403 404 344 581 522 760 583 483 582 
502 602 622 563 702 683 543 841 662 
643 821 664 623 663 763 803 961 823 
684 1002 743 804 744 824 903 922 1043 
982 1063 882 923 863 1022 844 1543 1083 
864 1163 943 1042 1162 963 1103 983 1003 
1044 1123 1223 1024 1621 1143 181 1144 1542 
1064 1025 1084 985 1046 1065 1085 1104 1026 
1087 1066 1224 1125 1205 1363 1126 1442 1244 
1225 1186 1343 1165 1284 1323 1462 1265 1364 
1404 1304 1403 1385 1384 1365 1325 1424 1345 
1366 1346 1524 1642 1444 2144 1464 121 1583 
1965 1405 2 142 103 1545 84 82 102 
1644 122 1604 1623 101 1565 1585 123 1605 
62 4 1625 104 1624 64 5 26 25 
27 6 45 85 222 65 66 183 203 
86 184 165 204 166 164 146 243 185 
205 147 225 186 167 245 226 304 285 
284 206 345 365 325 305 266 346 385 
424 384 405 444 386 425 464 562 523 
503 544 504 484 465 485 603 564 524 
642 624 584 604 644 565 625 585 645 
665 605 704 842 764 705 724 685 725 
784 902 785 786 825 805 806 766 884 
845 904 885 865 924 826 886 866 846 
944 905 984 1045 964 925 946 945 965 
926 986 947 966 967 1005 1006 1047 1027 
987 1089 1067 1068 1088 1108 1146 1107 1166 
1226 1147 1128 1245 1206 1207 1227 1187 1208 
1246 1266 1324 1285 1305 1267 1286 1386 1326 
1307 1306 1406 1347 1387 1367 1484 1584 1426 
1425 1465 1603 1504 1445 1466 1467 1485 1525 
1486 1546 1505 1487 1506 1547 1566 1586 1526 
24 1567 1645 1606 1646 1647 1627 1626 7 
46 1648 47 8 87 67 28 88 125 
106 145 202 107 108 126 127 148 187 
168 208 265 227 207 188 247 246 286 
267 306 287 326 307 328 327 366 347 
367 407 406 387 446 426 445 427 466 
467 505 486 447 506 525 545 526 547 
546 586 626 567 587 566 686 606 627 
607 646 666 687 647 667 765 706 726 
746 745 787 767 727 747 827 807 788 
808 847 848 867 888 907 887 906 868 
927 908 890 910 909 928 949 929 968 
948 969 1008 988 989 1007 1029 1048 1028 
1009 1127 1069 1049 1090 1129 1130 1110 1109 
1168 1188 1149 1167 1148 1229 1228 1189 1209 
1268 1248 1249 1247 1269 1288 1308 1287 1289 
1327 1329 1309 1328 1368 1388 1407 1348 1446 
1427 1409 1428 1408 1448 1447 1429 1449 1468 
1488 1489 1469 1529 1509 1507 1508 1527 1528 
1548 1587 1568 1588 1609 1608 1607 1649 1628 
1650 1630 1629 10 29 48 9 70 49 
69 68 50 90 109 89 110 128 149 
129 209 169 189 190 170 248 249 229 
228 269 270 289 288 268 308 329 309 
369 349 368 348 409 408 389 388 449 
428 429 448 468 507 488 487 469 548 
508 527 528 569 588 568 549 609 628 
608 589 669 629 649 668 648 689 708 
707 688 729 749 709 748 728 769 768 
789 828 809 849 829 869 889 870 850 
912 911 892 891 931 930 950 951 970 
971 991 990 1031 1030 1011 1010 1071 1050 
1051 1070 1091 1092 1131 1111 1112 1169 1150 
1170 1132 1151 1211 1190 1191 1210 1250 1231 
1230 1251 1270 1291 1271 1290 1331 1330 1310 
1311 1350 1351 1369 1349 1370 1411 1410 1389 
1390 1451 1450 1431 1430 1471 1470 1491 1511 
1510 1490 1530 1531 1569 1551 1550 1549 1570 
1589 1571 1591 1590 1610 1631 1652 1611 1651 
11 12 30 31 72 51 71 91 92 
111 130 151 131 150 171 192 191 210 
211 230 231 250 290 291 271 251 330 
311 331 310 351 370 371 350 410 411 
390 430 431 450 451 489 470 471 490 
529 530 510 509 551 570 550 571 590 
591 610 611 651 650 630 631 671 670 
690 691 711 730 731 710 751 750 770 
771 790 791 831 811 810 830 851 871 
872 893 913 914 894 933 932 952 953 
973 993 972 992 1032 1013 1033 1012 1052 
1072 1053 1073 1113 1093 1114 1133 1152 1153 
1134 1171 1213 1172 1192 1212 1253 1232 1233 
1252 1273 1293 1272 1292 1313 1312 1332 1333 
1373 1352 1371 1353 1372 1393 1392 1391 1413 
1412 1452 1432 1433 1453 1472 1492 1473 1493 
1513 1533 1532 1512 1552 1553 1572 1573 1613 
1592 1593 1632 1612 1653 1633 33 32 13 
73 53 52 112 93 113 132 133 153 
152 172 193 194 173 213 253 232 212 
233 252 273 272 292 293 332 312 333 
313 353 372 352 373 393 412 391 413 
392 453 433 452 432 473 472 493 492 
491 511 532 531 512 553 552 572 573 
613 612 592 593 632 652 633 653 673 
672 692 693 712 713 733 732 752 773 
772 753 792 812 833 832 813 793 852 
853 873 895 935 915 916 934 954 975 
955 994 1015 974 995 1034 1014 1035 1055 
1054 1095 1074 1075 1155 1115 1135 1094 1136 
1154 1173 1195 1174 1175 1193 1194 1215 1214 
1235 1234 1255 1254 1275 1274 1295 1294 1315 
1334 1335 1314 1355 1354 1375 1374 1394 1414 
1415 1395 1435 1434 1455 1454 1495 1474 1494 
1475 1534 1515 1535 1514 1555 1575 1574 1554 
1615 1595 1594 1635 1654 1655 1634 1614 14 
34 35 15 74 55 54 75 94 95 
114 115 135 155 134 154 215 195 175 
174 255 214 254 235 234 275 294 295 
274 314 315 334 335 355 395 374 354 
375 414 394 415 454 434 435 455 475 
474 495 494 534 514 513 533 555 574 
575 554 614 615 594 595 654 655 634 
635 695 675 694 674 715 714 734 735 
755 754 794 775 795 774 834 814 815 
835 875 874 855 854 977 956 936 1017 
996 976 997 1037 1016 1036 1057 1097 1076 
1077 1056 1096 1117 1116 1137 1197 1177 1157 
1156 1196 1217 1237 1176 1216 1257 1236 1256 
1276 1277 1297 1317 1337 1316 1296 1336 1357 
1377 1397 1376 1356 1417 1437 1396 1457 1416 
1477 1497 1436 1456 1517 1476 1537 1557 1496 
1577 1536 1597 1516 1556 1576 1617 1637 1596 
1616 17 1657 1656 57 37 1636 16 77 
97 36 117 76 96 137 56 157 177 
136 116 197 217 176 237 156 216 277 
257 196 236 297 276 317 256 337 316 
377 296 357 336 397 417 356 376 396 
457 437 416 436 456 477 497 476 537 
496 517 557 516 577 536 515 597 556 
617 535 637 657 576 596 636 697 616 
677 717 656 737 676 757 716 696 777 
736 817 756 797 837 776 796 877 857 
816 836 917 897 957 876 937 896 856 
1238 279 259 1218 319 1258 299 1278 359 
1298 339 1318 379 1358 1338 399 419 439 
1398 1378 459 479 1438 1418 539 1458 1478 
499 519 1498 579 559 1518 599 1538 1558 
619 1578 1598 639 659 679 699 1618 1638 
719 1658 18 759 739 779 58 78 38 
799 819 839 98 118 859 879 138 158 
899 198 919 178 218 959 238 939 258 
278 1019 999 979 318 1039 1059 298 338 
358 1079 378 1099 418 398 1119 1139 438 
1159 458 1179 1199 1239 478 498 1219 518 
1259 1279 538 558 578 1299 598 1319 1339 
1359 618 638 1379 678 658 718 1419 1399 
698 1459 1439 758 738 1499 1479 778 798 
818 1519 838 1539 1559 878 1579 858 1619 
918 898 1599 938 958 1639 1659 978 998 
39 19 79 1018 59 1038 1058 99 119 
1078 1098 1118 139 159 1158 1138 199 179 
219 239 1198 1178 2401 2398 2400 2399 2402 
2405 2403 2404 2407 2409 2406 2408 2411 2413 
2412 2410 2417 2414 2416 2415 2420 2421 2419 
2418 2427 2425 2424 2422 2423 2426 2429 2428 
2430 2431 2435 2432 2433 2434 2436 2439 2437 
2438 2441 2440 2443 2442 2444 2447 2446 2445 
2451 2449 2450 2448 2455 2452 2453 2454 2457 
2459 2456 2458 2463 2461 2460 2462 2464 2465 
2467 2466 2469 2468 2470 2471 2474 2475 2472 
2473 2477 2478 2481 2480 2479 2476 2485 2484 
2483 2482 2486 2489 2488 2487 2493 2492 2490 
2491 2497 2496 2495 2494 2500 2498 2499 2501 
2502 2505 2503 2504 2509 2508 2507 2506 2511 
2512 2513 2510 2516 2514 2515 2517 2521 2520 
2518 2519 2524 2525 2522 2523 2527 2528 2529 
2526 2530 2531 2532 2533 2534 2535 2536 2537 
2538 2539 2540 2541 2543 2542 2544 2545 2546 
2547 2548 2551 2550 2549 2554 2555 2553 2552 
2558 2556 2557 2559 2560 2561 2562 2563 
FIELD FieldData 7
r 3 2798 float
-0.5125 -0.4875 0 -0.5375 -0.4625 0 -0.5375 -0.4875 0 
-0.5125 -0.4625 0 -0.487805 -0.4875 0 -0.463415 -0.4875 0 
-0.463415 -0.4625 0 -0.487805 -0.4625 0 -0.414634 -0.4625 0 
-0.414634 -0.4875 0 -0.439024 -0.4875 0 -0.439024 -0.4625 0 
-0.365854 -0.4625 0 -0.365854 -0.4875 0 -0.390244 -0.4625 0 
-0.390244 -0.4875 0 -0.341463 -0.4875 0 -0.341463 -0.4625 0 
-0.317073 -0.4875 0 -0.317073 -0.4625 0 -0.292683 -0.4875 0 
-0.292683 -0.4625 0 -0.268293 -0.4625 0 -0.268293 -0.4875 0 
-0.243902 -0.4875 0 -0.243902 -0.4625 0 -0.219512 -0.4625 0 
-0.219512 -0.4875 0 -0.195122 -0.4875 0 -0.195122 -0.4625 0 
-0.170732 -0.4875 0 -0.170732 -0.4625 0 -0.121951 -0.4625 0 
-0.121951 -0.4875 0 -0.146341 -0.4625 0 -0.146341 -0.4875 0 
-0.097561 -0.4875 0 -0.097561 -0.4625 0 -0.0731707 -0.4875 0 
-0.0731707 -0.4625 0 -0.0243903 -0.4875 0 -1.86265e-08 -0.4625 0 
-0.0243903 -0.4625 0 -0.0487805 -0.4625 0 -1.86265e-08 -0.4875 0 
-0.0487805 -0.4875 0 0.0487805 -0.4625 0 0.0487805 -0.4875 0 
0.0243902 -0.4625 0 0.0243902 -0.4875 0 0.097561 -0.4875 0 
0.097561 -0.4625 0 0.0731707 -0.4625 0 0.0731707 -0.4875 0 
0.146341 -0.4625 0 0.146341 -0.4875 0 0.121951 -0.4875 0 
0.121951 -0.4625 0 0.195122 -0.4875 0 0.170732 -0.4875 0 
0.195122 -0.4625 0 0.170732 -0.4625 0 0.219512 -0.4625 0 
0.243902 -0.4625 0 0.243902 -0.4875 0 0.219512 -0.4875 0 
0.268293 -0.4875 0 0.292683 -0.4625 0 0.268293 -0.4625 0 
0.292683 -0.4875 0 0.341463 -0.4625 0 0.317073 -0.4875 0 
0.341463 -0.4875 0 0.317073 -0.4625 0 0.390244 -0.4875 0 
0.365854 -0.4625 0 0.365854 -0.4875 0 0.390244 -0.4625 0 
0.414634 -0.4625 0 0.439024 -0.4625 0 0.414634 -0.4875 0 
0.439024 -0.4875 0 0.487805 -0.4875 0 0.487805 -0.4625 0 
0.463415 -0.4875 0 0.463415 -0.4625 0 0.5125 -0.4875 0 
0.5375 -0.4875 0 0.5375 -0.4625 0 0.5125 -0.4625 0 
-0.5375 -0.4125 0 -0.5125 -0.4125 0 -0.5125 -0.4375 0 
-0.5375 -0.4375 0 -0.454387 -0.409686 0 -0.487755 -0.437671 0 
-0.489128 -0.411637 0 -0.466463 -0.432514 0 -0.405753 -0.413413 0 
-0.41958 -0.4376 0 -0.444509 -0.438711 0 -0.431373 -0.413837 0 
-0.361595 -0.408546 0 -0.373483 -0.434253 0 -0.394965 -0.437413 0 
-0.383689 -0.406163 0 -0.351665 -0.437183 0 -0.328777 -0.436397 0 
-0.315843 -0.408904 0 -0.338819 -0.41067 0 -0.306565 -0.436139 0 
-0.269811 -0.410798 0 -0.283984 -0.437012 0 -0.292897 -0.41014 0 
-0.261005 -0.43648 0 -0.24788 -0.405839 0 -0.239804 -0.434426 0 
-0.218427 -0.435969 0 -0.226447 -0.407333 0 -0.204394 -0.409562 0 
-0.151114 -0.434944 0 -0.160873 -0.404814 0 -0.196031 -0.43721 0 
-0.181696 -0.412037 0 -0.172358 -0.436655 0 -0.139332 -0.410717 0 
-0.115798 -0.413385 0 -0.128276 -0.437764 0 -0.103839 -0.43802 0 
-0.0532937 -0.413127 0 -0.0618631 -0.437117 0 -0.07293 -0.402058 0 
-0.0935507 -0.407777 0 -0.0824766 -0.432725 0 -0.018181 -0.431089 0 
-0.00955396 -0.404994 0 -0.0326889 -0.406101 0 -0.0376859 -0.438269 0 
0.0242193 -0.434989 0 0.0114981 -0.409443 0 0.0464224 -0.438331 0 
0.00204215 -0.437571 0 0.0348061 -0.409713 0 0.0677693 -0.432668 0 
0.0889537 -0.437708 0 0.0572292 -0.409253 0 0.0928329 -0.414002 0 
0.148978 -0.44014 0 0.112888 -0.405733 0 0.12988 -0.425986 0 
0.140175 -0.403101 0 0.113488 -0.439231 0 0.189736 -0.416909 0 
0.178051 -0.438891 0 0.161165 -0.418942 0 0.248856 -0.421692 0 
0.235372 -0.439904 0 0.230487 -0.401536 0 0.217362 -0.419396 0 
0.205927 -0.439491 0 0.266856 -0.440244 0 0.283032 -0.424559 0 
0.26458 -0.405066 0 0.300176 -0.407781 0 0.318608 -0.425601 0 
0.30132 -0.441106 0 0.33673 -0.440405 0 0.332419 -0.404479 0 
0.367717 -0.440187 0 0.399441 -0.406495 0 0.366289 -0.402698 0 
0.351375 -0.421023 0 0.383356 -0.423118 0 0.43635 -0.439277 0 
0.400588 -0.441038 0 0.438094 -0.410616 0 0.418122 -0.426309 0 
0.487616 -0.415665 0 0.487404 -0.438841 0 0.461539 -0.437913 0 
0.461279 -0.41499 0 0.5125 -0.4125 0 0.5125 -0.4375 0 
0.5375 -0.4125 0 0.5375 -0.4375 0 -0.5375 -0.3875 0 
-0.5375 -0.3625 0 -0.5125 -0.3625 0 -0.5125 -0.3875 0 
-0.458567 -0.373927 0 -0.478682 -0.359366 0 -0.472633 -0.395995 0 
-0.490941 -0.379357 0 -0.439309 -0.386171 0 -0.416196 -0.390245 0 
-0.412288 -0.365823 0 -0.435163 -0.35847 0 -0.391273 -0.383107 0 
-0.375702 -0.365216 0 -0.360773 -0.382896 0 -0.337251 -0.384225 0 
-0.340948 -0.359383 0 -0.313391 -0.382892 0 -0.31766 -0.356833 0 
-0.269809 -0.357902 0 -0.293664 -0.359139 0 -0.265525 -0.383459 0 
-0.289196 -0.384701 0 -0.222272 -0.380534 0 -0.205029 -0.358938 0 
-0.243351 -0.376433 0 -0.176847 -0.382333 0 -0.164924 -0.360269 0 
-0.198168 -0.38391 0 -0.112469 -0.35508 0 -0.104207 -0.383321 0 
-0.133426 -0.360478 0 -0.149532 -0.380838 0 -0.126104 -0.387079 0 
-0.0860502 -0.371862 0 -0.0686452 -0.350892 0 -0.0639048 -0.379469 0 
-0.0421946 -0.381867 0 -0.0196211 -0.378015 0 -0.0461821 -0.354276 0 
-0.0240933 -0.351824 0 -0.00166062 -0.350875 0 0.0208768 -0.356551 0 
0.00260511 -0.379155 0 0.0470658 -0.382463 0 0.0245949 -0.38379 0 
0.0434046 -0.355012 0 0.0668316 -0.371442 0 0.0758176 -0.397296 0 
0.0760069 -0.35082 0 0.0930541 -0.381141 0 0.130608 -0.363987 0 
0.118543 -0.383292 0 0.100843 -0.359377 0 0.149066 -0.381788 0 
0.170714 -0.396996 0 0.197893 -0.361417 0 0.159453 -0.359708 0 
0.179983 -0.376004 0 0.199805 -0.395779 0 0.246759 -0.385602 0 
0.234101 -0.363264 0 0.215658 -0.379389 0 0.295673 -0.370277 0 
0.264533 -0.370825 0 0.281971 -0.390135 0 0.279466 -0.351023 0 
0.347305 -0.385133 0 0.31389 -0.388119 0 0.343136 -0.350666 0 
0.309886 -0.35068 0 0.327881 -0.368771 0 0.362755 -0.367475 0 
0.380676 -0.353059 0 0.381702 -0.386017 0 0.399898 -0.374212 0 
0.419944 -0.36422 0 0.438605 -0.38101 0 0.445727 -0.354312 0 
0.418745 -0.395196 0 0.460398 -0.390732 0 0.489129 -0.369907 0 
0.486078 -0.393425 0 0.465915 -0.366281 0 0.5125 -0.3625 0 
0.5375 -0.3875 0 0.5375 -0.3625 0 0.5125 -0.3875 0 
-0.5125 -0.3375 0 -0.5375 -0.3375 0 -0.5375 -0.3125 0 
-0.5125 -0.3125 0 -0.455477 -0.34547 0 -0.453824 -0.306111 0 
-0.470079 -0.325567 0 -0.490241 -0.340139 0 -0.489874 -0.309875 0 
-0.401986 -0.319154 0 -0.422952 -0.305509 0 -0.438935 -0.325806 0 
-0.418493 -0.337498 0 -0.359804 -0.346937 0 -0.386385 -0.300044 0 
-0.394946 -0.349117 0 -0.363962 -0.311604 0 -0.379175 -0.330679 0 
-0.320772 -0.306161 0 -0.322826 -0.332123 0 -0.34462 -0.327552 0 
-0.29703 -0.307303 0 -0.298594 -0.332746 0 -0.275655 -0.332546 0 
-0.27378 -0.304372 0 -0.254186 -0.323039 0 -0.211002 -0.301457 0 
-0.226302 -0.349647 0 -0.247909 -0.349245 0 -0.233598 -0.318601 0 
-0.212202 -0.328836 0 -0.150687 -0.341403 0 -0.186845 -0.300328 0 
-0.165849 -0.32356 0 -0.189311 -0.325923 0 -0.184779 -0.34993 0 
-0.143619 -0.310281 0 -0.128637 -0.330589 0 -0.110425 -0.321073 0 
-0.062575 -0.325764 0 -0.0929935 -0.345043 0 -0.0858885 -0.321491 0 
-0.0190039 -0.323783 0 -0.0403359 -0.326001 0 0.0407267 -0.314657 0 