# vtk DataFile Version 4.0
vtk output
ASCII
DATASET POLYDATA
FIELD FieldData 4
domain 1 3 string
domain_min:-20|-15
domain_max:20|15
cell_size:0.05

variables 1 2 string
dt:0.000372678
T:1.78094

constants 1 10 string
xsize:2
ysize:1
csize:0.05
dx:0.0238095
h:0.025
rho0:1000
mass:0.566894
g:1|0
c:13.4164
CFL:0.2

functions 1 8 string
time:T=(T+dt)
continuity:rho_dot=((-(rho*sph_D00(v,mass,rho,Wp52220)))+(((0.1*c)*h)*sph_L00(rho,mass,rho,Wp52220)))
irho:rho=(rho+int1((rho_dot,dt))
EOS:p=(((c^2)*(rho-rho0))+10000)
euler:a=if((gid,(0*v),(((-((1/rho)*sph_G11(p,mass,rho,Wp52220)))+(0.01*sph_L00(v,mass,rho,Wp52220)))+g))
vel:v=(v+int1((a,dt))
pos:r=(r+int1((v,dt))
new_dt:dt=(CFL*min((sqrt(((h/fmax(magnitude((a)))),(h/c)))

POINTS 2798 float
-0.5375 -0.4625 0 -0.5125 -0.4875 0 -0.5125 -0.4625 0 
-0.5375 -0.4875 0 -0.487805 -0.4875 0 -0.463415 -0.4875 0 
-0.463415 -0.4625 0 -0.487805 -0.4625 0 -0.414634 -0.4875 0 
-0.439024 -0.4875 0 -0.439024 -0.4625 0 -0.414634 -0.4625 0 
-0.390244 -0.4625 0 -0.365854 -0.4875 0 -0.390244 -0.4875 0 
-0.365854 -0.4625 0 -0.317073 -0.4625 0 -0.341463 -0.4875 0 
-0.341463 -0.4625 0 -0.317073 -0.4875 0 -0.268293 -0.4625 0 
-0.268293 -0.4875 0 -0.292683 -0.4625 0 -0.292683 -0.4875 0 
-0.219512 -0.4875 0 -0.243902 -0.4625 0 -0.219512 -0.4625 0 
-0.243902 -0.4875 0 -0.195122 -0.4625 0 -0.170732 -0.4625 0 
-0.195122 -0.4875 0 -0.170732 -0.4875 0 -0.146341 -0.4625 0 
-0.121951 -0.4875 0 -0.121951 -0.4625 0 -0.146341 -0.4875 0 
-0.097561 -0.4875 0 -0.097561 -0.4625 0 -0.0731707 -0.4875 0 
-0.0731707 -0.4625 0 -0.0243903 -0.4625 0 -1.86265e-08 -0.4875 0 
-0.0487805 -0.4625 0 -0.0243903 -0.4875 0 -0.0487805 -0.4875 0 
-1.86265e-08 -0.4625 0 0.0243902 -0.4625 0 0.0243902 -0.4875 0 
0.0487805 -0.4625 0 0.0487805 -0.4875 0 0.097561 -0.4875 0 
0.0731707 -0.4625 0 0.0731707 -0.4875 0 0.097561 -0.4625 0 
0.146341 -0.4875 0 0.121951 -0.4625 0 0.146341 -0.4625 0 
0.121951 -0.4875 0 0.195122 -0.4625 0 0.195122 -0.4875 0 
0.170732 -0.4875 0 0.170732 -0.4625 0 0.219512 -0.4625 0 
0.219512 -0.4875 0 0.243902 -0.4875 0 0.243902 -0.4625 0 
0.292683 -0.4625 0 0.268293 -0.4625 0 0.268293 -0.4875 0 
0.292683 -0.4875 0 0.317073 -0.4875 0 0.341463 -0.4625 0 
0.317073 -0.4625 0 0.341463 -0.4875 0 0.390244 -0.4875 0 
0.390244 -0.4625 0 0.365854 -0.4625 0 0.365854 -0.4875 0 
0.414634 -0.4875 0 0.439024 -0.4875 0 0.414634 -0.4625 0 
0.439024 -0.4625 0 0.463415 -0.4875 0 0.487805 -0.4625 0 
0.487805 -0.4875 0 0.463415 -0.4625 0 0.5125 -0.4625 0 
0.5375 -0.4875 0 0.5375 -0.4625 0 0.5125 -0.4875 0 
-0.5375 -0.4125 0 -0.5125 -0.4375 0 -0.5125 -0.4125 0 
-0.5375 -0.4375 0 -0.466925 -0.412648 0 -0.489522 -0.434826 0 
-0.489249 -0.406811 0 -0.466286 -0.438987 0 -0.425066 -0.437922 0 
-0.402721 -0.435265 0 -0.403169 -0.408467 0 -0.445041 -0.430582 0 
-0.445784 -0.400047 0 -0.425105 -0.40911 0 -0.357276 -0.437493 0 
-0.38037 -0.436864 0 -0.379282 -0.411082 0 -0.357155 -0.408196 0 
-0.336304 -0.400897 0 -0.31598 -0.412702 0 -0.33773 -0.431058 0 
-0.31648 -0.439557 0 -0.294912 -0.432473 0 -0.256814 -0.41191 0 
-0.279786 -0.410694 0 -0.273258 -0.438269 0 -0.226197 -0.434921 0 
-0.249256 -0.437417 0 -0.20471 -0.437304 0 -0.232991 -0.410491 0 
-0.213422 -0.400829 0 -0.195879 -0.414796 0 -0.155749 -0.437263 0 
-0.170779 -0.41219 0 -0.17944 -0.437967 0 -0.146856 -0.411916 0 
-0.132198 -0.437346 0 -0.123484 -0.410864 0 -0.109257 -0.436428 0 
-0.098345 -0.412387 0 -0.0537225 -0.405055 0 -0.0745076 -0.410772 0 
-0.0856694 -0.438064 0 -0.0630827 -0.435436 0 -0.0185776 -0.437585 0 
-0.0318994 -0.411887 0 -0.00899667 -0.41015 0 -0.0419519 -0.436102 0 
0.0369299 -0.408235 0 0.0483128 -0.433363 0 0.0271564 -0.437838 0 
0.0143056 -0.411621 0 0.00404115 -0.436494 0 0.0784914 -0.413633 0 
0.0690286 -0.43756 0 0.0579277 -0.404101 0 0.0935775 -0.438636 0 
0.102165 -0.413254 0 0.139477 -0.437122 0 0.125775 -0.408814 0 
0.148896 -0.412929 0 0.117316 -0.436278 0 0.173443 -0.412972 0 
0.163514 -0.438132 0 0.187362 -0.436643 0 0.197844 -0.411019 0 
0.23767 -0.438459 0 0.221708 -0.416863 0 0.247774 -0.413722 0 
0.210961 -0.438813 0 0.262453 -0.437762 0 0.289021 -0.44012 0 
0.273651 -0.415432 0 0.299736 -0.420457 0 0.341332 -0.400013 0 
0.319033 -0.439731 0 0.329138 -0.418929 0 0.307933 -0.400711 0 
0.347813 -0.440241 0 0.378963 -0.439155 0 0.359366 -0.421607 0 
0.379051 -0.410213 0 0.449227 -0.42305 0 0.401938 -0.414846 0 
0.425936 -0.414378 0 0.429503 -0.439925 0 0.403542 -0.437972 0 
0.462065 -0.440214 0 0.481958 -0.417986 0 0.461254 -0.403109 0 
0.488797 -0.438291 0 0.5375 -0.4125 0 0.5375 -0.4375 0 
0.5125 -0.4125 0 0.5125 -0.4375 0 -0.5125 -0.3625 0 
-0.5375 -0.3625 0 -0.5125 -0.3875 0 -0.5375 -0.3875 0 
-0.489379 -0.378532 0 -0.468608 -0.357432 0 -0.467426 -0.38553 0 
-0.402063 -0.35528 0 -0.427017 -0.379972 0 -0.424358 -0.351754 0 
-0.447219 -0.369277 0 -0.405062 -0.381432 0 -0.382502 -0.385199 0 
-0.378546 -0.358527 0 -0.360365 -0.380031 0 -0.30361 -0.361949 0 
-0.339691 -0.372833 0 -0.317517 -0.38044 0 -0.298534 -0.397567 0 
-0.283548 -0.37768 0 -0.27852 -0.352177 0 -0.262576 -0.386259 0 
-0.255977 -0.360264 0 -0.239347 -0.384512 0 -0.223971 -0.36928 0 
-0.201938 -0.378652 0 -0.151939 -0.351109 0 -0.1554 -0.386397 0 
-0.19196 -0.356256 0 -0.168891 -0.366666 0 -0.1817 -0.390066 0 
-0.131398 -0.361831 0 -0.104863 -0.364439 0 -0.132569 -0.385093 0 
-0.107535 -0.3883 0 -0.0835548 -0.356505 0 -0.063846 -0.375057 0 
-0.0827978 -0.386378 0 -0.0410494 -0.356541 0 -0.0174387 -0.36018 0 
-0.0415889 -0.382925 0 -0.01824 -0.385419 0 0.0471219 -0.37024 0 
0.0285416 -0.352743 0 0.00726179 -0.360968 0 0.029788 -0.383957 0 
0.00636122 -0.385293 0 0.0890532 -0.388101 0 0.0708768 -0.353872 0 
0.0930147 -0.363437 0 0.0667148 -0.381081 0 0.147085 -0.388544 0 
0.129951 -0.373101 0 0.11367 -0.353333 0 0.14128 -0.350348 0 
0.112425 -0.386782 0 0.160677 -0.365494 0 0.172302 -0.388677 0 
0.197422 -0.386969 0 0.186324 -0.364265 0 0.241826 -0.365507 0 
0.218245 -0.37191 0 0.20736 -0.350867 0 0.22501 -0.393951 0 
0.276812 -0.394008 0 0.267275 -0.369013 0 0.294334 -0.379272 0 
0.250403 -0.389733 0 0.282883 -0.351863 0 0.307065 -0.359022 0 
0.322856 -0.382181 0 0.338749 -0.368091 0 0.389087 -0.387547 0 
0.364739 -0.367072 0 0.390139 -0.364567 0 0.361391 -0.389991 0 
0.442936 -0.367565 0 0.413048 -0.389573 0 0.437646 -0.392081 0 
0.417782 -0.366065 0 0.486643 -0.350415 0 0.464712 -0.37996 0 
0.487002 -0.372524 0 0.490253 -0.397074 0 0.461105 -0.351687 0 
0.5125 -0.3875 0 0.5375 -0.3875 0 0.5125 -0.3625 0 
0.5375 -0.3625 0 -0.5375 -0.3375 0 -0.5125 -0.3125 0 
-0.5125 -0.3375 0 -0.5375 -0.3125 0 -0.488619 -0.3213 0 
-0.489783 -0.349478 0 -0.467365 -0.329596 0 -0.427044 -0.322084 0 
-0.406126 -0.327288 0 -0.445838 -0.341287 0 -0.448119 -0.311216 0 
-0.358703 -0.348038 0 -0.386187 -0.304047 0 -0.363523 -0.319882 0 
-0.383894 -0.331905 0 -0.33431 -0.349972 0 -0.31285 -0.340476 0 
-0.341164 -0.324367 0 -0.318797 -0.315659 0 -0.265427 -0.32976 0 
-0.291091 -0.330063 0 -0.294885 -0.305158 0 -0.272506 -0.304025 0 
-0.215104 -0.345292 0 -0.243833 -0.32047 0 -0.239427 -0.345941 0 
-0.221772 -0.318059 0 -0.175238 -0.337393 0 -0.163438 -0.314871 0 
-0.185227 -0.305472 0 -0.197923 -0.327148 0 -0.100243 -0.307782 0 
-0.144345 -0.328358 0 -0.118961 -0.340946 0 -0.123258 -0.315849 0 
-0.0603177 -0.304999 0 -0.0750764 -0.324453 0 -0.0965104 -0.333599 0 
-0.0617316 -0.34597 0 -0.0339886 -0.300195 0 -0.0246925 -0.33367 0 
-0.0131914 -0.309813 0 -0.0454352 -0.325296 0 -0.00124088 -0.335976 0 
0.0206082 -0.328198 0 0.00899093 -0.305434 0 0.0417083 -0.316728 0 
0.096034 -0.313691 0 0.0647165 -0.302732 0 0.0499059 -0.34132 0 
0.0694789 -0.325172 0 0.0920682 -0.336069 0 0.121076 -0.33077 0 
0.12026 -0.30697 0 0.143652 -0.303807 0 0.148374 -0.327193 0 
0.169774 -0.342054 0 0.191867 -0.333004 0 0.172638 -0.31493 0 
0.249693 -0.301575 0 0.229174 -0.341543 0 0.233029 -0.319503 0 
0.207728 -0.317384 0 0.255392 -0.343862 0 0.28154 -0.304662 0 
0.262011 -0.322614 0 0.28681 -0.329924 0 0.3086 -0.325866 0 
0.349083 -0.345897 0 0.325982 -0.308214 0 0.323185 -0.343917 0 
0.342995 -0.3227 0 0.377251 -0.343012 0 0.386164 -0.307147 0 
0.368439 -0.322946 0 0.405621 -0.344159 0 0.432869 -0.343796 0 
0.402598 -0.323763 0 0.420261 -0.305553 0 0.435055 -0.322984 0 
0.482618 -0.306405 0 0.489147 -0.327271 0 0.461889 -0.32932 0 
0.45601 -0.306361 0 0.5125 -0.3125 0 0.5375 -0.3375 0 
0.5375 -0.3125 0 0.5125 -0.3375 0 -0.5375 -0.2625 0 
-0.5375 -0.2875 0 -0.5125 -0.2625 0 -0.5125 -0.2875 0 
-0.467316 -0.299256 0 -0.489267 -0.293907 0 -0.468312 -0.270877 0 
-0.489835 -0.265981 0 -0.401969 -0.271045 0 -0.423013 -0.264787 0 
-0.429012 -0.292608 0 -0.447344 -0.278715 0 -0.40766 -0.298085 0 
-0.441918 -0.250643 0 -0.361297 -0.294137 0 -0.38046 -0.277314 0 
-0.358517 -0.265867 0 -0.313492 -0.26212 0 -0.314286 -0.289137 0 
-0.336152 -0.270846 0 -0.338594 -0.296494 0 -0.270123 -0.275877 0 
-0.25081 -0.295519 0 -0.291764 -0.27693 0 -0.249073 -0.265262 0 
-0.203769 -0.272333 0 -0.225618 -0.261786 0 -0.208333 -0.297413 0 
-0.230333 -0.288162 0 -0.158528 -0.288128 0 -0.180931 -0.280276 0 
-0.175542 -0.255662 0 -0.152111 -0.263344 0 -0.130446 -0.268075 0 
-0.115638 -0.286867 0 -0.138899 -0.297396 0 -0.0727579 -0.270802 0 
-0.0825287 -0.294209 0 -0.0983946 -0.27095 0 -0.0517059 -0.280801 0 
-0.0376341 -0.260719 0 -0.020798 -0.27919 0 -0.00840137 -0.255585 0 
0.0316223 -0.294957 0 0.0241263 -0.271586 0 0.0153022 -0.250224 0 
0.00187305 -0.281473 0 0.0474698 -0.259784 0 0.0883182 -0.292094 0 
0.0537348 -0.282388 0 0.0718676 -0.250006 0 0.0783123 -0.271541 0 
0.128709 -0.256091 0 0.138216 -0.278076 0 0.11342 -0.283882 0 
0.103315 -0.262644 0 0.159946 -0.26488 0 0.182627 -0.272314 0 
0.163874 -0.291252 0 0.190771 -0.297684 0 0.206886 -0.274544 0 
0.21927 -0.295664 0 0.223517 -0.256708 0 0.237198 -0.279727 0 
0.25412 -0.263691 0 0.268723 -0.284789 0 0.274569 -0.252846 0 
0.29013 -0.272784 0 0.346181 -0.264539 0 0.303245 -0.297822 0 
0.311255 -0.254595 0 0.316273 -0.277115 0 0.33864 -0.286027 0 
[...]
POINT_DATA 2798
SCALARS id float
LOOKUP_TABLE default
2601 2620 2621 2600 2640 2642 2643 2641 2646 
2644 2645 2647 2649 2650 2648 2651 2655 2652 
2653 2654 2659 2658 2657 2656 2662 2661 2663 
2660 2665 2667 2664 2666 2669 2670 2671 2668 
2672 2673 2674 2675 2679 2680 2677 2678 2676 
2681 2683 2682 2685 2684 2688 2687 2686 2689 
2692 2691 2693 2690 2697 2696 2694 2695 2699 
2698 2700 2701 2705 2703 2702 2704 2706 2709 
2707 2708 2712 2713 2711 2710 2714 2716 2715 
2717 2718 2721 2720 2719 2723 2742 2743 2722 
2603 2622 2623 2602 1697 1660 1661 1678 1714 
1732 1768 1696 1715 1750 1804 1786 1823 1822 
1877 1913 1840 1858 1876 1967 1949 1894 1930 
1912 1948 1985 2003 1966 2020 2093 1984 2111 
2038 2129 2056 2147 2184 2165 2074 2092 2128 
2183 2201 2110 2237 2182 2164 2219 2146 2218 
2200 2255 2236 2291 2272 2310 2329 2254 2328 
2290 2309 2330 2327 2331 2347 2308 2326 2346 
2350 2349 2366 2348 2365 2351 2345 2344 2364 
2368 2382 2363 2383 2380 2362 2381 2385 2367 
2384 2745 2744 2725 2724 2625 2605 2624 2604 
1662 1716 1679 1824 1787 1806 1733 1805 1841 
1842 1859 1932 1895 1914 1931 1950 2005 1986 
2022 2004 2021 2002 2094 2112 2039 2075 2057 
2131 2167 2130 2148 2185 2203 2166 2221 2239 
2202 2220 2275 2276 2257 2256 2238 2273 2293 
2292 2274 2313 2312 2296 2314 2311 2315 2332 
2316 2300 2336 2317 2283 2333 2352 2335 2353 
2334 2248 2318 2354 2284 2372 2337 2267 2369 
2390 2370 2386 2371 2355 2389 2388 2387 2391 
2726 2746 2727 2747 2606 2627 2626 2607 1680 
1698 1734 1788 1825 1769 1751 1860 1862 1861 
1843 1896 1933 1878 1915 2023 1968 1951 1987 
2058 2041 2040 2059 2076 2095 2096 2077 2168 
2113 2149 2150 2206 2204 2186 2222 2224 2240 
2241 2223 2258 2259 2242 2277 2297 2279 2294 
2278 2295 2298 2281 2264 2299 2282 2247 2265 
1441 2230 21 2125 2266 1362 2142 1875 1481 
1461 100 2195 60 340 1122 1620 2090 2231 
0 1101 2213 2373 2301 280 1341 2729 2748 
2749 2728 2609 2608 2629 2628 1752 1717 1735 
1663 1881 1826 1807 1770 1844 1789 1879 1880 
1916 1970 1934 1953 1897 1969 2024 1952 2042 
2079 2061 2078 2060 2114 2097 2098 2115 2133 
2169 2132 2190 2205 2187 2207 2191 2208 2156 
2260 2243 2174 2225 2244 2280 2261 2245 2262 
2211 2194 2246 2263 2054 2072 2229 2212 1929 
2018 1581 1522 1838 120 1946 140 1301 1521 
1361 1561 1161 20 1460 1541 1420 1281 1201 
1141 1183 320 1400 1221 2751 2750 2731 2730 
2611 2631 2630 2610 1699 1753 1771 1790 1863 
1882 1808 1899 1935 1917 1900 1918 1898 1972 
1954 1971 1989 2025 2006 2026 1988 2007 2063 
2044 2045 2043 2062 2099 2046 2081 2080 2117 
2116 2064 2151 2189 2134 2188 2082 2170 2172 
2155 2173 2152 2226 2209 2140 2139 2192 2227 
2228 2210 2193 2036 2175 2176 1893 2177 2124 
2159 2035 1821 1911 1857 1803 180 2107 1 
1731 40 1600 1982 1820 1181 1580 1928 1910 
1520 1540 1261 1241 1440 1081 1121 1321 1766 
2752 2733 2753 2732 2613 2612 2632 2633 1772 
1736 1681 1700 1718 1845 1864 1827 1846 1901 
1883 1937 1919 1936 1955 1938 1991 1974 1990 
1973 2008 1992 2010 2027 1993 2029 2028 1977 
1905 2047 2011 1959 2030 2100 2012 2135 2065 
2136 2101 2171 2153 2137 2154 2123 2120 2157 
2138 2089 2158 2071 2141 2122 2052 2053 2105 
2106 2070 2087 2088 1839 2000 2051 2034 2017 
1964 1981 1980 1998 1926 1963 160 1892 1837 
1749 1784 1802 1040 1767 1729 1001 1713 2734 
2754 2735 2755 2615 2634 2614 2635 1719 1682 
1665 1737 1664 1809 1828 1754 1865 1884 1902 
1885 1920 1903 1939 1868 1867 1956 1957 1940 
1921 1924 1922 1887 2009 1975 1976 1958 1871 
1923 1835 1817 1852 1781 1994 1816 1711 1941 
1960 2083 2048 1995 1925 1944 2013 1906 2066 
2118 2121 2119 2014 2084 2068 2104 2049 2103 
2102 2085 2050 2015 2086 2033 1999 2069 2032 
1890 2016 1908 1785 462 1693 1979 1856 1942 
1909 762 900 1120 1853 1560 542 1300 1818 
1891 1712 1873 2736 2757 2737 2756 2616 2637 
2617 2636 1666 1701 1720 1683 1791 1810 1773 
1755 1847 1848 1866 1829 1793 1831 1849 1830 
1812 1813 1904 1758 1739 1869 1741 1775 1794 
1886 1870 1832 1834 1795 1851 1850 1779 1815 
1742 1727 1705 1689 1798 1780 1746 1673 1745 
1797 1674 1799 1708 1691 1978 1100 1814 1762 
2031 1888 1671 1996 1140 80 1943 1961 2067 
1997 1962 1874 1927 1709 1889 820 1945 1695 
2325 1676 1710 2145 1728 1180 2271 1080 1783 
1675 1220 2288 1819 2739 2758 2759 2738 2567 
2565 2564 2566 2570 2569 2571 2568 2574 2575 
2573 2572 2576 2577 2579 2578 2583 2582 2581 
2580 2585 2586 2587 2584 2588 2589 2590 2591 
2595 2594 2593 2592 2599 2596 2597 2598 2638 
2618 2639 2619 1222 1702 1668 1667 1684 1738 
1703 220 1792 1811 1774 1685 1721 240 2392 
1756 1704 1757 2143 1686 2320 2356 1722 1670 
2215 2250 2374 2303 1760 1740 1777 1776 2251 
1523 2234 1502 2357 1723 2361 1342 1283 1796 
1778 1833 1726 1744 1687 2376 2323 2252 2375 
2359 2198 1724 2377 1725 2358 2179 1761 41 
1707 2343 2394 2235 2396 800 1763 1743 2270 
2306 1020 2287 2019 461 1672 601 2397 2199 
2740 2741 2761 2760 2762 2763 2765 2764 2769 
2767 2766 2768 2773 2771 2772 2770 2776 2777 
2775 2774 2780 2778 2781 2779 2783 2784 2782 
2785 2786 2788 2789 2787 2790 2792 2793 2791 
2795 2797 2796 2794 1041 1907 1764 1747 263 
1854 802 862 1242 1320 1692 1260 1782 822 
541 941 363 620 921 1102 981 1694 1340 
1677 1062 1202 2285 381 701 1021 1240 1401 
423 2178 682 2319 402 401 1601 641 1262 
861 1669 722 2160 980 901 621 2338 260 
801 1000 2249 742 404 1061 783 343 1142 
843 681 940 703 960 1282 1182 2232 781 
883 962 903 2126 1381 2214 1322 1184 1543 
1421 1402 922 804 723 1023 923 1947 1043 
1203 1621 1243 1759 1022 1162 1003 2216 1123 
2305 1582 201 1223 1303 181 1542 983 963 
2161 2339 161 640 2395 1688 1185 2163 2393 
2196 1483 2360 2253 2233 2180 2341 2304 840 
2108 761 2321 2307 1060 163 2055 2037 1855 
1480 341 162 1690 1801 2378 680 2289 421 
1706 520 1500 2342 780 2217 1730 1836 460 
1380 2091 223 1765 1748 482 720 881 1800 
1872 1200 860 2269 420 3 1643 2127 2322 
281 2379 2286 104 1280 1360 481 560 1160 
441 221 700 540 43 1605 122 362 101 
422 123 302 241 521 4 321 2181 600 
501 1585 124 62 721 740 442 105 920 
262 361 282 264 6 242 85 224 24 
222 463 403 283 323 760 661 383 880 
382 324 245 344 364 304 443 305 522 
582 284 325 741 602 782 841 583 2302 
1082 683 1002 942 961 702 622 444 821 
662 563 763 643 803 823 642 664 744 
1063 1640 1204 863 684 663 1382 1083 1044 
1103 864 1163 943 902 1042 764 806 665 
884 844 566 825 1144 786 300 904 1105 
766 1124 984 1422 1004 1263 1302 1145 964 
1045 1544 1983 200 1106 2109 2197 1602 1564 
1383 1264 1501 141 1482 1224 1363 660 143 
42 360 1463 81 2268 61 1443 2324 480 
1404 500 83 2340 1385 261 182 561 1364 
22 1384 1304 1323 1345 1227 23 1365 2001 
121 1524 400 2073 1644 63 82 440 1604 
1965 1642 380 84 102 1286 103 1346 1545 
1623 142 1603 1485 1584 2 1565 1425 1465 
1505 1504 1525 144 44 1486 1466 301 25 
580 1624 26 45 1645 5 27 1586 1547 
64 1567 203 183 184 65 204 244 66 
165 86 243 166 342 322 303 225 205 
285 147 186 185 206 483 266 365 581 
286 502 345 405 424 562 386 503 326 
385 366 523 544 543 287 464 623 484 
603 824 624 625 743 982 565 882 704 
605 842 604 584 585 546 724 526 545 
785 685 705 626 784 805 845 1024 646 
745 765 746 1064 687 885 905 1143 924 
866 925 1641 1084 985 1104 944 1025 1562 
1164 1086 1344 965 1442 945 1065 1125 1244 
1225 1343 1563 1087 1066 2162 1424 1165 1503 
1366 1403 1462 1186 1126 1423 1067 1088 987 
1007 948 1265 1107 1207 1226 1027 1206 1245 
1284 1285 1622 2144 1128 1325 1187 1324 1266 
1246 1305 1464 1583 1267 1208 1247 1405 1444 
1306 1406 1367 1387 1386 1368 1426 1445 1347 
1484 1427 1407 1446 1546 1428 1467 1487 1625 
1468 1566 1506 1448 1526 1606 1626 1646 1527 
46 1587 1647 1548 1627 7 1588 1607 202 
47 67 164 145 146 87 125 126 167 
106 88 127 226 187 148 207 246 384 
227 265 306 346 208 189 228 229 209 
247 307 267 327 288 406 644 504 485 
347 425 645 524 407 446 445 564 525 
505 426 465 486 466 506 487 586 547 
725 507 607 666 686 606 826 787 706 
647 707 865 726 807 747 767 886 867 
727 846 827 887 788 906 848 847 868 
966 849 907 1085 926 1046 888 986 1026 
1205 946 1047 1005 947 1006 967 909 910 
928 929 988 949 1008 968 1068 1146 1089 
1108 1028 1029 1069 1127 1166 1048 1049 1109 
1090 1147 1110 1167 1129 1130 1228 1148 1188 
1149 1209 1189 1229 1168 1307 1248 1287 1210 
1326 1288 1308 1327 1348 1329 1309 1328 1447 
1349 1369 1388 1408 1409 1429 1389 1370 1488 
1449 1507 1469 1508 1528 1568 1509 1489 1608 
1549 1529 1648 1550 1628 1569 1589 1609 1629 
28 8 1649 9 49 48 107 68 30 
29 108 89 69 128 149 129 168 188 
170 169 190 150 268 210 249 248 230 
289 308 250 269 329 309 328 367 368 
310 369 349 348 427 388 387 408 428 
447 467 448 468 488 527 449 508 548 
567 587 568 588 627 589 569 667 608 
609 648 629 668 628 649 688 708 669 
689 728 748 709 869 808 749 729 768 
789 828 829 769 850 889 809 830 908 
870 890 927 872 912 892 911 891 950 
969 930 931 970 951 989 990 1009 1010 
1011 991 1050 1031 1051 1030 1091 1092 1071 
1093 1070 1131 1111 1112 1132 1151 1190 1170 
1150 1169 1268 1230 1211 1249 1250 1289 1269 
1290 1310 1311 1330 1351 1331 1352 1332 1350 
1390 1371 1431 1410 1411 1430 1451 1470 1471 
1450 1490 1491 1530 1510 1511 1531 1570 1551 
1571 1611 1610 1591 1590 1650 1631 1630 1651 
10 31 11 50 71 51 70 90 130 
110 109 91 111 131 151 132 153 191 
171 172 152 231 211 212 232 270 271 
290 251 330 272 291 292 350 409 389 
370 410 390 429 450 411 430 469 470 
490 509 489 528 549 529 510 530 551 
570 550 591 571 590 610 611 630 650 
631 651 670 690 671 710 731 730 711 
691 771 750 770 751 791 790 811 810 
831 851 871 852 893 873 894 874 932 
913 914 933 973 971 953 952 1013 992 
1012 993 972 1033 1032 1052 1053 1072 1094 
1073 1134 1114 1133 1113 1152 1172 1171 1153 
1191 1192 1212 1233 1231 1232 1251 1270 1292 
1271 1272 1293 1291 1354 1333 1353 1312 1313 
1392 1373 1372 1391 1432 1413 1412 1433 1452 
1473 1472 1453 1493 1512 1492 1513 1553 1532 
1533 1552 1573 1572 1613 1593 1592 1652 1633 
1653 1632 1612 13 12 32 33 72 53 
73 52 113 112 93 92 134 133 154 
155 173 174 194 193 192 214 234 213 
233 273 253 252 312 294 293 311 313 
332 351 352 331 372 392 391 371 413 
432 431 412 451 452 472 471 513 512 
511 492 491 531 553 532 552 573 593 
592 572 612 633 613 632 652 672 693 
673 653 692 732 733 712 713 773 772 
753 752 812 792 793 813 854 853 833 
832 916 895 935 875 955 915 934 975 
1015 995 1035 974 954 1075 1055 1014 994 
1136 1054 1034 1095 1175 1115 1135 1155 1074 
1194 1154 1195 1174 1214 1235 1193 1173 1254 
1213 1255 1275 1234 1315 1253 1273 1274 1252 
1294 1335 1314 1355 1334 1395 1375 1393 1394 
1374 1415 1435 1455 1414 1434 1495 1454 1475 
1474 1515 1514 1535 1494 1554 1555 1595 1574 
1575 1534 1594 1635 1615 1614 1654 1634 15 
1655 34 14 55 35 54 95 74 75 
156 94 114 115 135 215 196 176 175 
195 276 296 235 255 295 275 274 315 
314 254 375 333 374 354 353 415 394 
395 393 435 414 434 373 455 433 454 
453 473 495 474 475 494 493 534 514 
515 533 555 554 575 595 574 594 615 
655 614 635 634 654 695 694 674 675 
735 714 734 715 754 774 775 755 814 
815 795 794 855 834 896 835 1197 1016 
996 1177 1036 1217 1237 1056 1257 1096 1277 
1076 1157 1297 1116 1337 1317 1176 1156 1377 
1216 1357 1196 1397 1215 1236 1417 1437 1256 
1457 1276 1296 1497 1316 1477 1356 1537 1295 
1517 1336 1376 1396 1557 1577 1617 1436 1416 
1597 1637 1456 1657 1476 37 1516 1496 17 
1556 77 1536 57 1576 97 117 1596 137 
1636 157 1616 16 197 177 1656 36 237 
56 217 96 297 76 277 317 136 116 
337 257 216 357 397 417 256 457 377 
437 236 376 477 316 336 356 497 517 
335 557 355 334 537 396 577 416 597 
617 456 637 436 657 496 677 476 717 
697 536 516 535 556 737 757 596 797 
777 576 817 616 636 837 857 656 676 
877 897 716 917 696 756 977 736 776 
937 957 796 997 1017 816 1037 1057 856 
836 1077 1097 876 936 956 1117 976 1137 
38 1199 18 1179 78 58 1239 1219 98 
118 1259 1279 1299 158 138 1319 1339 1379 
178 198 1359 218 1399 1419 238 258 1459 
1439 278 318 1479 1499 298 338 358 1519 
1539 398 378 1579 1559 418 438 1599 1619 
458 1639 19 478 498 1659 518 59 538 
39 578 79 558 598 119 139 618 99 
638 658 179 159 678 698 219 199 259 
738 239 718 778 758 299 279 798 818 
319 339 359 399 858 379 838 439 878 
419 898 918 958 479 459 938 499 998 
519 978 559 539 1038 1018 599 1078 1058 
579 639 659 1138 1118 619 1098 679 1178 
1158 699 1218 719 739 1198 1238 1258 779 
759 819 799 1298 1278 1318 1338 839 859 
1358 879 899 1378 1398 1418 919 939 1438 
959 1458 1478 979 1498 1518 1019 999 1538 
1558 1059 1039 1578 1079 1598 1618 1119 1099 
1638 1139 1159 1658 2400 2399 2398 2401 2405 
2403 2402 2404 2407 2408 2409 2406 2413 2412 
2410 2411 2416 2415 2417 2414 2419 2420 2421 
2418 2427 2425 2423 2422 2424 2426 2430 2428 
2429 2431 2432 2435 2433 2434 2439 2438 2437 
2436 2440 2442 2443 2441 2445 2444 2447 2446 
2449 2448 2450 2451 2453 2452 2454 2455 2457 
2456 2459 2458 2463 2461 2460 2462 2465 2467 
2466 2464 2469 2471 2468 2470 2473 2472 2474 
2475 2476 2479 2480 2478 2477 2481 2482 2483 
2484 2485 2486 2489 2487 2488 2493 2492 2490 
2491 2497 2496 2495 2494 2500 2501 2498 2499 
2503 2504 2502 2505 2509 2508 2507 2506 2511 
2512 2513 2510 2517 2515 2514 2516 2519 2521 
2518 2520 2522 2523 2524 2525 2527 2528 2529 
2526 2532 2533 2531 2530 2534 2535 2536 2537 
2538 2539 2542 2540 2543 2541 2544 2545 2546 
2547 2548 2549 2550 2551 2552 2554 2553 2555 
2558 2556 2557 2559 2560 2561 2562 2563 
FIELD FieldData 7
r 3 2798 float
-0.5375 -0.4625 0 -0.5125 -0.4875 0 -0.5125 -0.4625 0 
-0.5375 -0.4875 0 -0.487805 -0.4875 0 -0.463415 -0.4875 0 
-0.463415 -0.4625 0 -0.487805 -0.4625 0 -0.414634 -0.4875 0 
-0.439024 -0.4875 0 -0.439024 -0.4625 0 -0.414634 -0.4625 0 
-0.390244 -0.4625 0 -0.365854 -0.4875 0 -0.390244 -0.4875 0 
-0.365854 -0.4625 0 -0.317073 -0.4625 0 -0.341463 -0.4875 0 
-0.341463 -0.4625 0 -0.317073 -0.4875 0 -0.268293 -0.4625 0 
-0.268293 -0.4875 0 -0.292683 -0.4625 0 -0.292683 -0.4875 0 
-0.219512 -0.4875 0 -0.243902 -0.4625 0 -0.219512 -0.4625 0 
-0.243902 -0.4875 0 -0.195122 -0.4625 0 -0.170732 -0.4625 0 
-0.195122 -0.4875 0 -0.170732 -0.4875 0 -0.146341 -0.4625 0 
-0.121951 -0.4875 0 -0.121951 -0.4625 0 -0.146341 -0.4875 0 
-0.097561 -0.4875 0 -0.097561 -0.4625 0 -0.0731707 -0.4875 0 
-0.0731707 -0.4625 0 -0.0243903 -0.4625 0 -1.86265e-08 -0.4875 0 
-0.0487805 -0.4625 0 -0.0243903 -0.4875 0 -0.0487805 -0.4875 0 
-1.86265e-08 -0.4625 0 0.0243902 -0.4625 0 0.0243902 -0.4875 0 
0.0487805 -0.4625 0 0.0487805 -0.4875 0 0.097561 -0.4875 0 
0.0731707 -0.4625 0 0.0731707 -0.4875 0 0.097561 -0.4625 0 
0.146341 -0.4875 0 0.121951 -0.4625 0 0.146341 -0.4625 0 
0.121951 -0.4875 0 0.195122 -0.4625 0 0.195122 -0.4875 0 
0.170732 -0.4875 0 0.170732 -0.4625 0 0.219512 -0.4625 0 
0.219512 -0.4875 0 0.243902 -0.4875 0 0.243902 -0.4625 0 
0.292683 -0.4625 0 0.268293 -0.4625 0 0.268293 -0.4875 0 
0.292683 -0.4875 0 0.317073 -0.4875 0 0.341463 -0.4625 0 
0.317073 -0.4625 0 0.341463 -0.4875 0 0.390244 -0.4875 0 
0.390244 -0.4625 0 0.365854 -0.4625 0 0.365854 -0.4875 0 
0.414634 -0.4875 0 0.439024 -0.4875 0 0.414634 -0.4625 0 
0.439024 -0.4625 0 0.463415 -0.4875 0 0.487805 -0.4625 0 
0.487805 -0.4875 0 0.463415 -0.4625 0 0.5125 -0.4625 0 
0.5375 -0.4875 0 0.5375 -0.4625 0 0.5125 -0.4875 0 
-0.5375 -0.4125 0 -0.5125 -0.4375 0 -0.5125 -0.4125 0 
-0.5375 -0.4375 0 -0.466925 -0.412648 0 -0.489522 -0.434826 0 
-0.489249 -0.406811 0 -0.466286 -0.438987 0 -0.425066 -0.437922 0 
-0.402721 -0.435265 0 -0.403169 -0.408467 0 -0.445041 -0.430582 0 
-0.445784 -0.400047 0 -0.425105 -0.40911 0 -0.357276 -0.437493 0 
-0.38037 -0.436864 0 -0.379282 -0.411082 0 -0.357155 -0.408196 0 
-0.336304 -0.400897 0 -0.31598 -0.412702 0 -0.33773 -0.431058 0 
-0.31648 -0.439557 0 -0.294912 -0.432473 0 -0.256814 -0.41191 0 
-0.279786 -0.410694 0 -0.273258 -0.438269 0 -0.226197 -0.434921 0 
-0.249256 -0.437417 0 -0.20471 -0.437304 0 -0.232991 -0.410491 0 
-0.213422 -0.400829 0 -0.195879 -0.414796 0 -0.155749 -0.437263 0 
-0.170779 -0.41219 0 -0.17944 -0.437967 0 -0.146856 -0.411916 0 
-0.132198 -0.437346 0 -0.123484 -0.410864 0 -0.109257 -0.436428 0 
-0.098345 -0.412387 0 -0.0537225 -0.405055 0 -0.0745076 -0.410772 0 
-0.0856694 -0.438064 0 -0.0630827 -0.435436 0 -0.0185776 -0.437585 0 
-0.0318994 -0.411887 0 -0.00899667 -0.41015 0 -0.0419519 -0.436102 0 
0.0369299 -0.408235 0 0.0483128 -0.433363 0 0.0271564 -0.437838 0 
0.0143056 -0.411621 0 0.00404115 -0.436494 0 0.0784914 -0.413633 0 
0.0690286 -0.43756 0 0.0579277 -0.404101 0 0.0935775 -0.438636 0 
0.102165 -0.413254 0 0.139477 -0.437122 0 0.125775 -0.408814 0 
0.148896 -0.412929 0 0.117316 -0.436278 0 0.173443 -0.412972 0 
0.163514 -0.438132 0 0.187362 -0.436643 0 0.197844 -0.411019 0 
0.23767 -0.438459 0 0.221708 -0.416863 0 0.247774 -0.413722 0 
0.210961 -0.438813 0 0.262453 -0.437762 0 0.289021 -0.44012 0 
0.273651 -0.415432 0 0.299736 -0.420457 0 0.341332 -0.400013 0 
0.319033 -0.439731 0 0.329138 -0.418929 0 0.307933 -0.400711 0 
0.347813 -0.440241 0 0.378963 -0.439155 0 0.359366 -0.421607 0 
0.379051 -0.410213 0 0.449227 -0.42305 0 0.401938 -0.414846 0 
0.425936 -0.414378 0 0.429503 -0.439925 0 0.403542 -0.437972 0 
0.462065 -0.440214 0 0.481958 -0.417986 0 0.461254 -0.403109 0 
0.488797 -0.438291 0 0.5375 -0.4125 0 0.5375 -0.4375 0 
0.5125 -0.4125 0 0.5125 -0.4375 0 -0.5125 -0.3625 0 
-0.5375 -0.3625 0 -0.5125 -0.3875 0 -0.5375 -0.3875 0 
-0.489379 -0.378532 0 -0.468608 -0.357432 0 -0.467426 -0.38553 0 
-0.402063 -0.35528 0 -0.427017 -0.379972 0 -0.424358 -0.351754 0 
-0.447219 -0.369277 0 -0.405062 -0.381432 0 -0.382502 -0.385199 0 
-0.378546 -0.358527 0 -0.360365 -0.380031 0 -0.30361 -0.361949 0 
-0.339691 -0.372833 0 -0.317517 -0.38044 0 -0.298534 -0.397567 0 
-0.283548 -0.37768 0 -0.27852 -0.352177 0 -0.262576 -0.386259 0 
-0.255977 -0.360264 0 -0.239347 -0.384512 0 -0.223971 -0.36928 0 
-0.201938 -0.378652 0 -0.151939 -0.351109 0 -0.1554 -0.386397 0 
-0.19196 -0.356256 0 -0.168891 -0.366666 0 -0.1817 -0.390066 0 
-0.131398 -0.361831 0 -0.104863 -0.364439 0 -0.132569 -0.385093 0 
-0.107535 -0.3883 0 -0.0835548 -0.356505 0 -0.063846 -0.375057 0 
-0.0827978 -0.386378 0 -0.0410494 -0.356541 0 -0.0174387 -0.36018 0 
-0.0415889 -0.382925 0 -0.01824 -0.385419 0 0.0471219 -0.37024 0 
0.0285416 -0.352743 0 0.00726179 -0.360968 0 0.029788 -0.383957 0 
0.00636122 -0.385293 0 0.0890532 -0.388101 0 0.0708768 -0.353872 0 
0.0930147 -0.363437 0 0.0667148 -0.381081 0 0.147085 -0.388544 0 
0.129951 -0.373101 0 0.11367 -0.353333 0 0.14128 -0.350348 0 
0.112425 -0.386782 0 0.160677 -0.365494 0 0.172302 -0.388677 0 
0.197422 -0.386969 0 0.186324 -0.364265 0 0.241826 -0.365507 0 
0.218245 -0.37191 0 0.20736 -0.350867 0 0.22501 -0.393951 0 
0.276812 -0.394008 0 0.267275 -0.369013 0 0.294334 -0.379272 0 
0.250403 -0.389733 0 0.282883 -0.351863 0 0.307065 -0.359022 0 
0.322856 -0.382181 0 0.338749 -0.368091 0 0.389087 -0.387547 0 
0.364739 -0.367072 0 0.390139 -0.364567 0 0.361391 -0.389991 0 
0.442936 -0.367565 0 0.413048 -0.389573 0 0.437646 -0.392081 0 
0.417782 -0.366065 0 0.486643 -0.350415 0 0.464712 -0.37996 0 
0.487002 -0.372524 0 0.490253 -0.397074 0 0.461105 -0.351687 0 
0.5125 -0.3875 0 0.5375 -0.3875 0 0.5125 -0.3625 0 
0.5375 -0.3625 0 -0.5375 -0.3375 0 -0.5125 -0.3125 0 
-0.5125 -0.3375 0 -0.5375 -0.3125 0 -0.488619 -0.3213 0 
-0.489783 -0.349478 0 -0.467365 -0.329596 0 -0.427044 -0.322084 0 
-0.406126 -0.327288 0 -0.445838 -0.341287 0 -0.448119 -0.311216 0 
-0.358703 -0.348038 0 -0.386187 -0.304047 0 -0.363523 -0.319882 0 
-0.383894 -0.331905 0 -0.33431 -0.349972 0 -0.31285 -0.340476 0 
-0.341164 -0.324367 0 -0.318797 -0.315659 0 -0.265427 -0.32976 0 
-0.291091 -0.330063 0 -0.294885 -0.305158 0 -0.272506 -0.304025 0 
-0.215104 -0.345292 0 -0.243833 -0.32047 0 -0.239427 -0.345941 0 
-0.221772 -0.318059 0 -0.175238 -0.337393 0 -0.163438 -0.314871 0 
-0.185227 -0.305472 0 -0.197923 -0.327148 0 -0.100243 -0.307782 0 
-0.144345 -0.328358 0 -0.118961 -0.340946 0 -0.123258 -0.315849 0 
-0.0603177 -0.304999 0 -0.0750764 -0.324453 0 -0.0965104 -0.333599 0 
-0.0617316 -0.34597 0 -0.0339886 -0.300195 0 -0.0246925 -0.33367 0 
-0.0131914 -0.309813 0 -0.0454352 -0.325296 0 -0.00124088 -0.335976 0 