# vtk DataFile Version 4.0
vtk output
ASCII
DATASET POLYDATA
FIELD FieldData 4
domain 1 3 string
domain_min:-20|-15
domain_max:20|15
cell_size:0.05

variables 1 2 string
dt:0.000372678
T:1.80106

constants 1 10 string
xsize:2
ysize:1
csize:0.05
dx:0.0238095
h:0.025
rho0:1000
mass:0.566894
g:1|0
c:13.4164
CFL:0.2

functions 1 8 string
time:T=(T+dt)
continuity:rho_dot=((-(rho*sph_D00(v,mass,rho,Wp52220)))+(((0.1*c)*h)*sph_L00(rho,mass,rho,Wp52220)))
irho:rho=(rho+int1((rho_dot,dt))
EOS:p=(((c^2)*(rho-rho0))+10000)
euler:a=if((gid,(0*v),(((-((1/rho)*sph_G11(p,mass,rho,Wp52220)))+(0.01*sph_L00(v,mass,rho,Wp52220)))+g))
vel:v=(v+int1((a,dt))
pos:r=(r+int1((v,dt))
new_dt:dt=(CFL*min((sqrt(((h/fmax(magnitude((a)))),(h/c)))

POINTS 2798 float
-0.5375 -0.4625 0 -0.5125 -0.4875 0 -0.5125 -0.4625 0 
-0.5375 -0.4875 0 -0.487805 -0.4875 0 -0.463415 -0.4625 0 
-0.487805 -0.4625 0 -0.463415 -0.4875 0 -0.414634 -0.4625 0 
-0.439024 -0.4625 0 -0.439024 -0.4875 0 -0.414634 -0.4875 0 
-0.365854 -0.4625 0 -0.365854 -0.4875 0 -0.390244 -0.4875 0 
-0.390244 -0.4625 0 -0.341463 -0.4625 0 -0.317073 -0.4875 0 
-0.341463 -0.4875 0 -0.317073 -0.4625 0 -0.268293 -0.4875 0 
-0.292683 -0.4875 0 -0.292683 -0.4625 0 -0.268293 -0.4625 0 
-0.243902 -0.4625 0 -0.219512 -0.4625 0 -0.219512 -0.4875 0 
-0.243902 -0.4875 0 -0.170732 -0.4625 0 -0.195122 -0.4625 0 
-0.195122 -0.4875 0 -0.170732 -0.4875 0 -0.121951 -0.4875 0 
-0.146341 -0.4625 0 -0.146341 -0.4875 0 -0.121951 -0.4625 0 
-0.0731707 -0.4875 0 -0.0731707 -0.4625 0 -0.097561 -0.4875 0 
-0.097561 -0.4625 0 -0.0243903 -0.4875 0 -0.0243903 -0.4625 0 
-0.0487805 -0.4625 0 -0.0487805 -0.4875 0 -1.86265e-08 -0.4875 0 
-1.86265e-08 -0.4625 0 0.0487805 -0.4875 0 0.0243902 -0.4875 0 
0.0487805 -0.4625 0 0.0243902 -0.4625 0 0.0731707 -0.4875 0 
0.097561 -0.4625 0 0.097561 -0.4875 0 0.0731707 -0.4625 0 
0.146341 -0.4875 0 0.146341 -0.4625 0 0.121951 -0.4625 0 
0.121951 -0.4875 0 0.170732 -0.4625 0 0.170732 -0.4875 0 
0.195122 -0.4875 0 0.195122 -0.4625 0 0.219512 -0.4625 0 
0.219512 -0.4875 0 0.243902 -0.4875 0 0.243902 -0.4625 0 
0.292683 -0.4625 0 0.292683 -0.4875 0 0.268293 -0.4625 0 
0.268293 -0.4875 0 0.317073 -0.4875 0 0.341463 -0.4625 0 
0.317073 -0.4625 0 0.341463 -0.4875 0 0.390244 -0.4875 0 
0.365854 -0.4875 0 0.365854 -0.4625 0 0.390244 -0.4625 0 
0.439024 -0.4625 0 0.414634 -0.4625 0 0.439024 -0.4875 0 
0.414634 -0.4875 0 0.463415 -0.4625 0 0.487805 -0.4875 0 
0.487805 -0.4625 0 0.463415 -0.4875 0 0.5375 -0.4875 0 
0.5125 -0.4875 0 0.5125 -0.4625 0 0.5375 -0.4625 0 
-0.5375 -0.4375 0 -0.5125 -0.4375 0 -0.5125 -0.4125 0 
-0.5375 -0.4125 0 -0.46803 -0.412372 0 -0.466344 -0.4395 0 
-0.489587 -0.407024 0 -0.489704 -0.435274 0 -0.426192 -0.410172 0 
-0.4044 -0.408152 0 -0.42692 -0.43934 0 -0.404507 -0.434652 0 
-0.446255 -0.429021 0 -0.359587 -0.437471 0 -0.358192 -0.407927 0 
-0.380217 -0.411262 0 -0.38256 -0.437052 0 -0.337356 -0.400573 0 
-0.318852 -0.439817 0 -0.340131 -0.431087 0 -0.317742 -0.413644 0 
-0.296684 -0.433197 0 -0.260364 -0.411958 0 -0.274802 -0.438221 0 
-0.250964 -0.437725 0 -0.283221 -0.410692 0 -0.201154 -0.414955 0 
-0.206657 -0.438263 0 -0.236839 -0.410304 0 -0.228421 -0.434241 0 
-0.158793 -0.436569 0 -0.181525 -0.437546 0 -0.154156 -0.409729 0 
-0.176864 -0.41089 0 -0.113141 -0.436947 0 -0.130612 -0.411311 0 
-0.105634 -0.412282 0 -0.136312 -0.436934 0 -0.0897777 -0.437527 0 
-0.0681503 -0.434262 0 -0.0817558 -0.409548 0 -0.0600179 -0.405783 0 
-0.0230048 -0.436904 0 -0.0467835 -0.437123 0 -0.0147567 -0.409804 0 
-0.0379953 -0.412359 0 -0.000334815 -0.43665 0 0.00872182 -0.412057 0 
0.0446782 -0.433356 0 0.0232304 -0.437689 0 0.0316155 -0.408828 0 
0.0961676 -0.413228 0 0.0523138 -0.403197 0 0.0728678 -0.412665 0 
0.0902366 -0.438513 0 0.0656292 -0.437221 0 0.114068 -0.436032 0 
0.118731 -0.407892 0 0.142078 -0.412448 0 0.136342 -0.436904 0 
0.189913 -0.409728 0 0.160684 -0.4381 0 0.165973 -0.412543 0 
0.184249 -0.436014 0 0.233758 -0.437819 0 0.213878 -0.415816 0 
0.240604 -0.414014 0 0.207856 -0.438618 0 0.259152 -0.43832 0 
0.285992 -0.43959 0 0.291716 -0.4179 0 0.26618 -0.415203 0 
0.322742 -0.418803 0 0.313307 -0.4388 0 0.336382 -0.40076 0 
0.342213 -0.440448 0 0.374817 -0.414176 0 0.398458 -0.415757 0 
0.353413 -0.422745 0 0.37531 -0.440039 0 0.402167 -0.438581 0 
0.423591 -0.4162 0 0.429293 -0.440198 0 0.448731 -0.423926 0 
0.479345 -0.417585 0 0.489651 -0.4375 0 0.462673 -0.440374 0 
0.458147 -0.40192 0 0.5125 -0.4125 0 0.5375 -0.4125 0 
0.5125 -0.4375 0 0.5375 -0.4375 0 -0.5125 -0.3625 0 
-0.5375 -0.3875 0 -0.5125 -0.3875 0 -0.5375 -0.3625 0 
-0.489515 -0.378699 0 -0.467768 -0.384433 0 -0.469389 -0.355997 0 
-0.447993 -0.367429 0 -0.404976 -0.355495 0 -0.429066 -0.380523 0 
-0.426319 -0.350512 0 -0.407403 -0.381259 0 -0.447024 -0.399107 0 
-0.380905 -0.359762 0 -0.361989 -0.380465 0 -0.384597 -0.385661 0 
-0.301487 -0.397005 0 -0.341779 -0.372066 0 -0.319919 -0.379849 0 
-0.307066 -0.360194 0 -0.287345 -0.37663 0 -0.282292 -0.351044 0 
-0.259949 -0.360089 0 -0.26689 -0.38611 0 -0.229248 -0.368192 0 
-0.217408 -0.399549 0 -0.20711 -0.377269 0 -0.243687 -0.384602 0 
-0.197599 -0.354635 0 -0.186915 -0.388814 0 -0.16159 -0.383092 0 
-0.175174 -0.363824 0 -0.113741 -0.388049 0 -0.137468 -0.362019 0 
-0.110105 -0.364553 0 -0.138383 -0.385376 0 -0.0694784 -0.37452 0 
-0.0883663 -0.35587 0 -0.0887129 -0.38576 0 -0.0481497 -0.383639 0 
-0.0245984 -0.385788 0 -0.047761 -0.356492 0 -0.0241548 -0.361036 0 
0.0241227 -0.384428 0 0.0216529 -0.35295 0 0.000524299 -0.361421 0 
0.000816457 -0.385654 0 0.0407419 -0.369612 0 0.0604409 -0.379737 0 
0.0855928 -0.361881 0 0.0829012 -0.387025 0 0.0641557 -0.351786 0 
0.138043 -0.387534 0 0.105607 -0.385347 0 0.105885 -0.350972 0 
0.122161 -0.369862 0 0.152727 -0.365239 0 0.188874 -0.385821 0 
0.163579 -0.387816 0 0.179345 -0.363034 0 0.200773 -0.350053 0 
0.243575 -0.390372 0 0.21052 -0.372085 0 0.217701 -0.39357 0 
0.234625 -0.36601 0 0.260166 -0.369926 0 0.271018 -0.39342 0 
0.276505 -0.353061 0 0.288826 -0.379045 0 0.3034 -0.399925 0 
0.301507 -0.358548 0 0.335483 -0.369884 0 0.317675 -0.381118 0 
0.356986 -0.392224 0 0.360345 -0.367662 0 0.386023 -0.366837 0 
0.382241 -0.389796 0 0.407482 -0.392322 0 0.439362 -0.371194 0 
0.413586 -0.370558 0 0.434261 -0.394633 0 0.487964 -0.374811 0 
0.486284 -0.352133 0 0.459448 -0.35562 0 0.489353 -0.39922 0 
0.464595 -0.380159 0 0.5125 -0.3875 0 0.5125 -0.3625 0 
0.5375 -0.3875 0 0.5375 -0.3625 0 -0.5125 -0.3375 0 
-0.5125 -0.3125 0 -0.5375 -0.3375 0 -0.5375 -0.3125 0 
-0.468075 -0.32724 0 -0.490114 -0.349465 0 -0.488815 -0.32073 0 
-0.407873 -0.326163 0 -0.428564 -0.320384 0 -0.447354 -0.339227 0 
-0.448911 -0.308398 0 -0.38557 -0.304839 0 -0.386722 -0.333583 0 
-0.361161 -0.348397 0 -0.365598 -0.321175 0 -0.321126 -0.313658 0 
-0.337146 -0.348791 0 -0.315989 -0.338747 0 -0.343504 -0.322816 0 
-0.297995 -0.302226 0 -0.294542 -0.327818 0 -0.269478 -0.329004 0 
-0.275637 -0.30285 0 -0.220238 -0.343707 0 -0.226155 -0.315833 0 
-0.247988 -0.319052 0 -0.202615 -0.326006 0 -0.244087 -0.344548 0 
-0.156845 -0.348921 0 -0.189507 -0.30476 0 -0.166802 -0.31245 0 
-0.179493 -0.334893 0 -0.102066 -0.333948 0 -0.12434 -0.341756 0 
-0.10453 -0.307295 0 -0.126873 -0.315661 0 -0.148186 -0.326661 0 
-0.0510106 -0.323737 0 -0.0671719 -0.303572 0 -0.0810547 -0.322929 0 
-0.0672596 -0.344029 0 -0.0310698 -0.334606 0 -0.00767349 -0.336379 0 
-0.0198256 -0.310458 0 0.00216169 -0.305657 0 0.0352338 -0.31632 0 
0.0140773 -0.328166 0 0.0430098 -0.340769 0 0.0853571 -0.333527 0 
0.0576198 -0.300568 0 0.0624839 -0.323162 0 0.0885897 -0.310921 0 
0.114375 -0.328575 0 0.142268 -0.325195 0 0.134371 -0.347807 0 
0.137674 -0.302078 0 0.113403 -0.305469 0 0.162841 -0.342271 0 
0.184873 -0.331853 0 0.166478 -0.314421 0 0.223322 -0.342502 0 
0.228068 -0.320012 0 0.203134 -0.318433 0 0.243438 -0.301942 0 
0.249831 -0.344427 0 0.256812 -0.323628 0 0.282797 -0.33141 0 
0.275855 -0.307132 0 0.320378 -0.346274 0 0.337321 -0.323725 0 
0.319995 -0.308914 0 0.304598 -0.327647 0 0.346257 -0.346263 0 
0.399301 -0.327466 0 0.353647 -0.301565 0 0.375221 -0.344417 0 
0.364082 -0.324933 0 0.382821 -0.30994 0 0.4339 -0.327684 0 
0.404047 -0.347931 0 0.430505 -0.347932 0 0.416668 -0.311121 0 
0.480007 -0.309572 0 0.489161 -0.32924 0 0.461343 -0.334232 0 
0.454431 -0.310968 0 0.5125 -0.3125 0 0.5125 -0.3375 0 
0.5375 -0.3375 0 0.5375 -0.3125 0 -0.5375 -0.2625 0 
-0.5125 -0.2875 0 -0.5125 -0.2625 0 -0.5375 -0.2875 0 
-0.48952 -0.266551 0 -0.466965 -0.295951 0 -0.489136 -0.293761 0 
-0.466963 -0.268944 0 -0.428065 -0.291634 0 -0.405528 -0.269966 0 
-0.425636 -0.260778 0 -0.445461 -0.276013 0 -0.40664 -0.297507 0 
-0.363962 -0.292589 0 -0.362457 -0.264414 0 -0.384104 -0.275884 0 
-0.342048 -0.295562 0 -0.339951 -0.269222 0 -0.317137 -0.260203 0 
-0.318146 -0.286821 0 -0.295277 -0.274367 0 -0.253137 -0.26347 0 
-0.273595 -0.275088 0 -0.253683 -0.294121 0 -0.23403 -0.284731 0 
-0.212828 -0.295914 0 -0.208297 -0.27022 0 -0.229305 -0.258141 0 
-0.162699 -0.286227 0 -0.155576 -0.262092 0 -0.186203 -0.280093 0 
-0.178663 -0.255833 0 -0.120605 -0.286226 0 -0.14268 -0.29593 0 
-0.134085 -0.265875 0 -0.10324 -0.269393 0 -0.0577246 -0.279997 0 
-0.0771254 -0.267352 0 -0.0884499 -0.290984 0 -0.0261047 -0.279664 0 
-0.0424808 -0.261014 0 -0.0125498 -0.256459 0 -0.0402307 -0.299506 0 
-0.00317456 -0.281563 0 0.0466182 -0.280428 0 0.0251204 -0.294967 0 
0.0188399 -0.270746 0 0.0420308 -0.257362 0 0.0713133 -0.269251 0 
0.0813287 -0.289527 0 0.097562 -0.261867 0 0.1239 -0.255492 0 
0.107402 -0.282485 0 0.132906 -0.277608 0 0.175971 -0.271238 0 
0.185506 -0.298094 0 0.15385 -0.26301 0 0.199696 -0.274561 0 
0.159176 -0.29028 0 0.248879 -0.264745 0 0.21813 -0.257888 0 
0.212751 -0.295829 0 0.230804 -0.280214 0 0.269892 -0.255088 0 
0.297219 -0.298967 0 0.262497 -0.286505 0 0.284633 -0.27559 0 
0.30458 -0.25824 0 0.31335 -0.279778 0 0.341919 -0.265719 0 
0.336015 -0.287986 0 0.372621 -0.286403 0 0.397369 -0.270538 0 
[...]
POINT_DATA 2798
SCALARS id float
LOOKUP_TABLE default
2601 2620 2621 2600 2640 2643 2641 2642 2647 
2645 2644 2646 2651 2650 2648 2649 2653 2654 
2652 2655 2658 2656 2657 2659 2661 2663 2662 
2660 2667 2665 2664 2666 2670 2669 2668 2671 
2674 2675 2672 2673 2678 2679 2677 2676 2680 
2681 2684 2682 2685 2683 2686 2689 2688 2687 
2692 2693 2691 2690 2695 2694 2696 2697 2699 
2698 2700 2701 2705 2704 2703 2702 2706 2709 
2707 2708 2712 2710 2711 2713 2717 2715 2716 
2714 2719 2720 2721 2718 2742 2722 2723 2743 
2602 2622 2623 2603 1697 1678 1661 1660 1750 
1768 1714 1732 1696 1804 1822 1823 1786 1877 
1858 1840 1913 1876 1967 1894 1912 1949 1966 
1948 1985 1930 2020 1984 2111 2093 2056 2129 
2147 2038 2074 2092 2165 2184 2128 2110 2201 
2183 2146 2219 2182 2164 2237 2291 2255 2218 
2236 2200 2254 2310 2329 2272 2330 2290 2328 
2309 2327 2331 2347 2308 2326 2346 2349 2350 
2365 2348 2366 2345 2368 2363 2364 2344 2362 
2383 2380 2382 2385 2384 2381 2367 2725 2745 
2724 2744 2625 2604 2624 2605 1662 1679 1716 
1733 1824 1787 1806 1805 1715 1842 1859 1841 
1931 1895 1914 1932 1950 2005 2022 1986 2021 
2003 2002 2004 2039 2057 2112 2075 2148 2131 
2167 2130 2203 2185 2166 2202 2220 2221 2239 
2256 2276 2257 2238 2275 2274 2292 2273 2293 
2313 2311 2296 2312 2315 2316 2332 2300 2283 
2334 2317 2333 2336 2335 2352 2248 2353 2351 
2318 2284 2354 2369 2337 2267 2372 2370 2390 
2371 2386 2388 2355 2391 2387 2389 2726 2727 
2746 2747 2626 2627 2606 2607 1734 1698 1680 
1825 1788 1769 1751 1862 1843 1860 1861 1915 
1896 1933 1878 1951 1968 2023 1987 2058 2059 
2041 2077 2040 2094 2096 2095 2076 2186 2149 
2168 2150 2113 2223 2206 2204 2222 2240 2258 
2241 2242 2277 2259 2294 2295 2279 2278 2297 
2298 2299 2314 2264 2281 2282 2247 2265 2230 
21 2125 1441 2266 2142 1875 1362 2195 60 
100 1481 1461 0 20 340 1620 1122 2213 
2090 2231 1101 2373 2301 280 1341 2729 2728 
2748 2749 2609 2628 2629 2608 1663 1752 1717 
1735 1807 1881 1826 1770 1844 1879 1916 1880 
1897 1953 1970 1934 1952 2042 1969 2024 2060 
2078 2079 2061 2114 2115 2097 2098 2169 2132 
2133 2187 2207 2190 2205 2208 2191 2156 2224 
2225 2261 2260 2243 2244 2262 2280 2263 2211 
2246 2194 2072 2212 2054 1929 2229 1838 1581 
2018 1522 1946 1521 120 140 1361 1561 1301 
1161 1460 1201 1181 1541 1420 1540 1141 1281 
1400 320 1183 1221 2731 2751 2750 2730 2630 
2610 2631 2611 1790 1771 1753 1699 1808 1789 
1882 1899 1863 1917 1898 1900 1935 1989 1971 
1954 1972 1988 2043 2006 2007 2026 2025 2062 
2045 2063 2044 2099 2080 2081 2046 2117 2064 
2116 2151 2188 2134 2189 2170 2172 2173 2155 
2140 2192 2209 2139 2226 2174 2227 2245 2228 
2210 2193 2175 2036 2177 2176 1893 2124 2159 
1911 1857 1821 2035 1803 180 1982 2107 1600 
40 1 1731 1928 160 1820 1910 1580 1520 
1261 1241 1729 1121 1081 1440 1766 1321 2752 
2753 2733 2732 2632 2633 2612 2613 1681 1772 
1718 1736 1700 1845 1864 1846 1827 1918 1919 
1883 1901 1990 1955 1936 2008 1973 1991 1974 
1992 2010 2027 2029 1905 2028 1993 1977 2011 
2047 1959 2030 2065 2082 2100 2135 2153 2152 
2101 2171 2136 2123 2138 2154 2120 2089 2157 
2158 2071 2122 2052 2053 2141 2106 2087 2105 
2070 2088 1839 2051 2000 2017 2034 1964 1981 
1998 1926 1963 1980 1892 1837 900 1749 1784 
1040 1802 1001 1713 1767 1873 2754 2735 2734 
2755 2634 2615 2614 2635 1719 1737 1665 1682 
1664 1754 1809 1828 1865 1884 1937 1920 1902 
1903 1939 1867 1938 1956 1924 1957 1921 1940 
1976 2009 1975 1887 1922 1871 1958 1923 1835 
1781 1817 1852 1711 1941 1816 2012 1994 1995 
2083 2048 1925 2013 2137 1960 2119 2121 2066 
2014 2118 1944 2068 2104 2049 2103 2084 2050 
2015 2085 2102 2033 2032 2069 1908 1999 1890 
2016 1979 1856 820 1693 1909 462 762 1942 
1853 1783 542 1560 1120 1891 1818 1712 1300 
2736 2756 2737 2757 2636 2637 2617 2616 1683 
1720 1701 1773 1755 1791 1810 1847 1829 1885 
1848 1866 1849 1868 1831 1830 1904 1813 1793 
1812 1869 1722 1739 1870 1794 1775 1832 1741 
1834 1886 1850 1776 1795 1851 1727 1815 1779 
1798 1705 1689 1780 1742 1797 1673 1906 1745 
1708 1691 1674 1746 1799 1762 1978 1814 1100 
1888 1671 2031 1943 2067 1961 1996 2086 1785 
1997 1709 80 1962 1140 1927 1889 1945 1874 
1695 2325 1180 1728 1710 1676 2271 2145 1080 
1220 1819 1675 2397 2288 2759 2739 2758 2738 
2565 2566 2564 2567 2571 2569 2570 2568 2572 
2574 2573 2575 2577 2576 2579 2578 2581 2580 
2583 2582 2586 2587 2585 2584 2588 2589 2590 
2591 2592 2593 2594 2595 2596 2598 2599 2597 
2639 2618 2619 2638 1667 1601 1666 1668 1702 
1222 1738 2160 220 1684 1685 1703 1792 2338 
1721 1774 260 1811 2392 240 1756 1757 2143 
1704 1758 1282 1686 2320 2356 2250 2374 2215 
1740 1670 1777 1760 2251 2303 2234 1402 1723 
1543 1523 1342 1502 1283 2357 2361 1744 1796 
1778 1833 2359 2376 1759 1726 2375 2252 2323 
1724 2358 1725 2198 2179 41 1707 2377 2343 
2394 1761 2235 1763 800 2396 1743 461 2306 
1020 2019 2199 1672 2287 601 2760 2740 2761 
2741 2765 2763 2764 2762 2768 2766 2769 2767 
2773 2772 2770 2771 2775 2777 2776 2774 2779 
2780 2778 2781 2785 2784 2783 2782 2788 2787 
2786 2789 2791 2792 2793 2790 2797 2794 2795 
2796 1747 1907 1872 1200 1242 862 1764 1041 
263 802 1260 1854 822 1320 1692 1782 541 
921 363 620 1102 941 221 422 1062 981 
1694 1340 1677 1202 701 2285 381 1240 1021 
423 2178 1401 682 920 402 2319 1262 401 
861 641 1669 621 722 901 980 2249 1000 
801 742 404 783 1061 343 1142 681 843 
940 703 960 2232 962 1182 883 782 2214 
1381 2126 903 922 1184 1421 1322 1947 723 
804 1043 1687 1023 923 1243 1022 1203 1621 
1003 2216 1162 2305 201 1582 1303 1123 1044 
181 1223 983 2161 1542 640 963 1185 161 
1688 2339 2393 2270 2395 2253 2163 2360 2304 
2233 2341 2180 840 2307 163 761 2321 2055 
1480 2037 1060 341 1855 162 2378 1801 520 
1690 680 2289 1500 421 780 2217 1730 2342 
1765 460 223 1836 1380 2091 1748 720 881 
482 1800 182 561 1364 22 2269 860 3 
420 2127 2322 1643 281 1280 104 2286 1360 
2379 400 1160 481 560 700 540 43 101 
362 122 1605 241 123 521 302 4 1585 
2181 600 501 321 721 62 1525 124 740 
105 262 442 264 361 282 6 242 85 
224 283 222 463 403 323 760 661 383 
880 382 443 304 324 364 344 245 522 
781 284 741 305 325 841 602 582 2302 
583 1082 961 1002 942 702 563 444 622 
821 662 763 643 803 823 642 1063 744 
664 684 1640 1204 863 1382 864 1083 1103 
943 902 1042 665 764 844 806 884 825 
786 1144 566 300 904 2196 1483 1105 766 
1422 1124 984 1263 1004 1302 2108 1045 1544 
1145 964 1983 1106 2197 2109 200 1602 1564 
1264 1383 1501 1224 1706 141 1363 1482 143 
660 42 81 360 1463 2268 61 1443 480 
1404 2324 1385 83 261 2340 1403 1462 1126 
1423 1384 1345 1323 1186 1365 1304 23 2001 
121 1207 1227 1524 82 441 1644 63 440 
380 1604 1965 1642 1325 1286 103 84 1346 
1545 1623 1603 102 1485 2 142 1565 1505 
1425 1504 1584 1466 144 44 1465 1486 25 
1624 580 301 5 26 1645 45 1547 24 
1586 64 27 184 183 203 1567 66 65 
244 204 165 166 243 86 342 322 303 
186 225 205 147 285 185 365 206 286 
483 683 581 266 502 562 345 424 405 
366 503 385 326 523 386 543 287 464 
544 663 623 484 603 743 625 624 982 
824 1163 565 704 882 605 604 584 842 
585 546 724 526 626 705 785 506 784 
646 845 1024 805 745 765 1064 746 924 
687 1143 925 1641 885 905 866 1104 1084 
944 1086 1562 1164 985 1025 1344 1065 945 
965 1442 1244 1225 1125 1563 1066 1087 2162 
1424 1366 1503 500 1343 1205 947 1006 1026 
1005 948 987 1007 967 1067 1027 1265 1226 
1088 1107 1245 1206 1284 2073 1166 2144 1285 
1622 1128 1187 1266 1246 1324 1305 1464 1208 
1267 1247 1583 1444 1405 1406 1386 1387 1306 
1347 1484 1426 1368 1367 1427 1446 1445 1407 
1487 1625 1467 1546 1428 1506 1468 1566 1448 
1527 1526 1646 1606 1647 1587 1626 46 1548 
1607 1588 1627 7 164 47 202 125 87 
67 146 106 167 126 145 88 226 187 
127 207 265 246 148 384 306 227 208 
189 346 228 209 267 229 247 307 504 
327 288 644 406 645 425 524 485 347 
564 445 446 426 505 465 525 486 545 
466 685 507 547 487 586 725 606 686 
607 706 666 787 747 826 726 865 647 
846 886 807 767 887 788 867 827 848 
906 868 849 847 907 1085 986 1046 966 
869 888 1165 926 946 1047 830 870 908 
889 909 890 927 910 928 968 988 949 
929 1068 1146 1008 1028 1089 1048 1108 1069 
1109 1090 1049 1127 1029 1129 1147 1110 1091 
1070 1167 1130 1148 1188 1149 1209 1168 1228 
1189 1229 1210 1287 1326 1288 1307 1248 1328 
1308 1309 1327 1329 1349 1408 1348 1388 1369 
1370 1447 1409 1449 1389 1488 1429 1469 1489 
1528 1508 1507 1568 1529 1509 1549 1608 1589 
1550 1569 1530 1628 8 1629 1609 1648 28 
1649 48 9 30 68 29 49 107 69 
108 128 168 89 188 129 149 170 150 
169 190 249 210 248 268 269 289 250 
328 309 308 329 367 310 349 348 407 
388 387 368 427 447 428 408 449 448 
468 467 488 508 567 527 627 587 568 
548 588 569 667 608 589 648 707 727 
628 609 629 688 649 668 708 669 728 
689 709 748 768 729 828 808 769 749 
809 789 850 829 810 831 851 811 852 
892 891 872 871 912 931 911 930 950 
989 969 970 951 991 1009 990 1010 1030 
1031 1011 1050 1051 1071 1093 1112 1092 1111 
1150 1132 1131 1151 1211 1170 1190 1230 1169 
1249 1269 1268 1250 1289 1291 1310 1290 1332 
1330 1331 1350 1311 1371 1351 1352 1411 1390 
1410 1430 1431 1450 1451 1470 1510 1490 1471 
1491 1511 1551 1531 1570 1590 1591 1571 1611 
1630 1610 1631 1651 10 11 1650 71 51 
31 50 70 109 91 90 110 130 151 
131 111 153 152 171 132 230 172 211 
191 231 232 270 251 212 290 271 272 
292 291 389 369 330 350 409 390 370 
411 430 429 410 450 469 489 470 510 
528 490 509 550 551 549 530 529 570 
590 571 591 631 611 610 630 670 650 
671 651 690 691 710 711 730 750 751 
731 790 791 771 770 833 813 812 832 
854 874 853 873 894 913 914 893 953 
932 952 933 971 972 993 973 992 1012 
1032 1013 1033 1073 1052 1053 1115 1072 1094 
1114 1113 1134 1153 1152 1133 1171 1172 1212 
1191 1192 1232 1251 1231 1233 1270 1272 1271 
1292 1293 1312 1333 1313 1373 1372 1353 1354 
1391 1392 1413 1412 1453 1452 1433 1432 1492 
1473 1493 1472 1553 1513 1533 1532 1512 1572 
1592 1573 1593 1552 1613 1633 1612 1632 13 
12 1652 1653 53 33 32 52 72 93 
92 73 112 155 133 113 134 174 154 
173 194 192 193 213 214 233 234 253 
252 313 293 294 273 311 331 332 312 
372 352 351 371 412 392 413 431 391 
432 471 452 451 511 492 491 472 512 
531 532 513 573 552 572 553 593 612 
613 592 652 633 632 673 653 672 692 
713 693 712 752 753 732 733 772 773 
792 793 814 896 834 835 855 916 875 
915 895 955 935 975 954 995 934 1015 
1035 994 1055 974 1095 1034 1075 1014 1054 
1074 1155 1136 1175 1154 1195 1135 1174 1194 
1173 1214 1234 1213 1255 1235 1193 1254 1275 
1253 1274 1252 1273 1335 1294 1315 1355 1314 
1375 1334 1374 1395 1394 1415 1414 1435 1393 
1455 1454 1475 1434 1495 1474 1514 1494 1535 
1515 1575 1555 1534 1554 1615 1574 1594 1595 
1635 1614 1655 1634 1654 14 35 15 34 
55 75 54 74 94 115 95 135 176 
156 114 196 195 276 175 215 275 235 
296 295 254 274 315 255 314 375 354 
395 353 333 374 394 415 393 373 414 
435 433 434 455 454 475 453 474 473 
493 495 494 515 533 555 534 514 574 
554 595 575 615 614 594 635 634 674 
675 654 655 715 695 714 694 734 735 
755 754 815 795 794 775 774 1097 956 
1117 936 996 1137 1177 976 1217 1197 1036 
1016 1076 1257 1056 1237 1297 1277 1096 1116 
1317 1337 1156 1157 1176 1377 1357 1216 1196 
1215 1236 1397 1417 1437 1457 1276 1256 1497 
1477 1316 1296 1336 1537 1517 1295 1356 1557 
1376 1416 1396 1577 1597 1617 1657 1637 1456 
1436 1496 17 37 1516 1476 77 1536 57 
1556 1576 97 117 157 1616 137 1636 1596 
197 1656 16 177 36 237 217 56 277 
96 297 76 337 136 116 317 257 216 
357 397 236 256 437 417 377 336 457 
376 477 497 316 356 537 355 517 335 
557 334 577 396 617 597 436 416 456 
637 657 476 697 677 496 516 717 536 
535 737 757 797 576 777 556 596 616 
817 837 636 857 656 877 917 716 696 
897 676 937 736 756 957 997 796 977 
776 836 1037 1017 816 1057 1077 876 856 
1658 1638 1179 1159 1219 38 18 1199 58 
78 1259 1239 98 1299 118 1279 1319 138 
1339 158 1399 1359 198 178 1379 1419 218 
238 1459 1439 278 1479 258 298 1499 318 
1519 338 358 378 1539 1559 1579 1599 398 
1639 418 438 1619 458 1659 478 498 19 
39 79 538 59 518 578 99 558 618 
139 598 119 658 199 179 159 638 219 
239 698 678 718 279 738 259 778 319 
758 299 798 339 818 359 838 379 858 
399 878 898 459 439 918 419 938 479 
958 499 519 539 978 998 579 559 1038 
1018 1058 599 1078 619 1118 639 1138 1098 
659 1158 699 1178 719 679 739 1218 1198 
1258 1238 799 779 759 839 819 1278 1298 
859 1338 1318 879 1378 899 1358 919 1418 
939 1398 1438 979 1478 1458 999 959 1498 
1019 1039 1518 1059 1558 1538 1079 1578 1099 
1598 1119 1139 1618 2400 2398 2399 2401 2403 
2402 2404 2405 2407 2408 2409 2406 2411 2412 
2413 2410 2414 2417 2416 2415 2421 2420 2418 
2419 2422 2426 2423 2425 2424 2427 2430 2428 
2429 2431 2435 2434 2432 2433 2438 2436 2437 
2439 2441 2440 2442 2443 2447 2446 2445 2444 
2451 2449 2450 2448 2453 2452 2454 2455 2457 
2458 2459 2456 2463 2461 2460 2462 2464 2466 
2467 2465 2469 2470 2468 2471 2473 2472 2474 
2475 2476 2479 2478 2481 2477 2480 2482 2483 
2484 2485 2486 2489 2487 2488 2493 2492 2490 
2491 2497 2496 2495 2494 2500 2501 2498 2499 
2502 2505 2503 2504 2509 2508 2507 2506 2511 
2512 2513 2510 2517 2515 2514 2516 2519 2521 
2518 2520 2524 2525 2522 2523 2527 2528 2529 
2526 2533 2532 2530 2531 2534 2535 2536 2537 
2538 2539 2540 2542 2541 2543 2544 2545 2546 
2547 2548 2549 2550 2551 2552 2554 2553 2555 
2558 2556 2557 2559 2560 2561 2562 2563 
FIELD FieldData 7
r 3 2798 float
-0.5375 -0.4625 0 -0.5125 -0.4875 0 -0.5125 -0.4625 0 
-0.5375 -0.4875 0 -0.487805 -0.4875 0 -0.463415 -0.4625 0 
-0.487805 -0.4625 0 -0.463415 -0.4875 0 -0.414634 -0.4625 0 
-0.439024 -0.4625 0 -0.439024 -0.4875 0 -0.414634 -0.4875 0 
-0.365854 -0.4625 0 -0.365854 -0.4875 0 -0.390244 -0.4875 0 
-0.390244 -0.4625 0 -0.341463 -0.4625 0 -0.317073 -0.4875 0 
-0.341463 -0.4875 0 -0.317073 -0.4625 0 -0.268293 -0.4875 0 
-0.292683 -0.4875 0 -0.292683 -0.4625 0 -0.268293 -0.4625 0 
-0.243902 -0.4625 0 -0.219512 -0.4625 0 -0.219512 -0.4875 0 
-0.243902 -0.4875 0 -0.170732 -0.4625 0 -0.195122 -0.4625 0 
-0.195122 -0.4875 0 -0.170732 -0.4875 0 -0.121951 -0.4875 0 
-0.146341 -0.4625 0 -0.146341 -0.4875 0 -0.121951 -0.4625 0 
-0.0731707 -0.4875 0 -0.0731707 -0.4625 0 -0.097561 -0.4875 0 
-0.097561 -0.4625 0 -0.0243903 -0.4875 0 -0.0243903 -0.4625 0 
-0.0487805 -0.4625 0 -0.0487805 -0.4875 0 -1.86265e-08 -0.4875 0 
-1.86265e-08 -0.4625 0 0.0487805 -0.4875 0 0.0243902 -0.4875 0 
0.0487805 -0.4625 0 0.0243902 -0.4625 0 0.0731707 -0.4875 0 
0.097561 -0.4625 0 0.097561 -0.4875 0 0.0731707 -0.4625 0 
0.146341 -0.4875 0 0.146341 -0.4625 0 0.121951 -0.4625 0 
0.121951 -0.4875 0 0.170732 -0.4625 0 0.170732 -0.4875 0 
0.195122 -0.4875 0 0.195122 -0.4625 0 0.219512 -0.4625 0 
0.219512 -0.4875 0 0.243902 -0.4875 0 0.243902 -0.4625 0 
0.292683 -0.4625 0 0.292683 -0.4875 0 0.268293 -0.4625 0 
0.268293 -0.4875 0 0.317073 -0.4875 0 0.341463 -0.4625 0 
0.317073 -0.4625 0 0.341463 -0.4875 0 0.390244 -0.4875 0 
0.365854 -0.4875 0 0.365854 -0.4625 0 0.390244 -0.4625 0 
0.439024 -0.4625 0 0.414634 -0.4625 0 0.439024 -0.4875 0 
0.414634 -0.4875 0 0.463415 -0.4625 0 0.487805 -0.4875 0 
0.487805 -0.4625 0 0.463415 -0.4875 0 0.5375 -0.4875 0 
0.5125 -0.4875 0 0.5125 -0.4625 0 0.5375 -0.4625 0 
-0.5375 -0.4375 0 -0.5125 -0.4375 0 -0.5125 -0.4125 0 
-0.5375 -0.4125 0 -0.46803 -0.412372 0 -0.466344 -0.4395 0 
-0.489587 -0.407024 0 -0.489704 -0.435274 0 -0.426192 -0.410172 0 
-0.4044 -0.408152 0 -0.42692 -0.43934 0 -0.404507 -0.434652 0 
-0.446255 -0.429021 0 -0.359587 -0.437471 0 -0.358192 -0.407927 0 
-0.380217 -0.411262 0 -0.38256 -0.437052 0 -0.337356 -0.400573 0 
-0.318852 -0.439817 0 -0.340131 -0.431087 0 -0.317742 -0.413644 0 
-0.296684 -0.433197 0 -0.260364 -0.411958 0 -0.274802 -0.438221 0 
-0.250964 -0.437725 0 -0.283221 -0.410692 0 -0.201154 -0.414955 0 
-0.206657 -0.438263 0 -0.236839 -0.410304 0 -0.228421 -0.434241 0 
-0.158793 -0.436569 0 -0.181525 -0.437546 0 -0.154156 -0.409729 0 
-0.176864 -0.41089 0 -0.113141 -0.436947 0 -0.130612 -0.411311 0 
-0.105634 -0.412282 0 -0.136312 -0.436934 0 -0.0897777 -0.437527 0 
-0.0681503 -0.434262 0 -0.0817558 -0.409548 0 -0.0600179 -0.405783 0 
-0.0230048 -0.436904 0 -0.0467835 -0.437123 0 -0.0147567 -0.409804 0 
-0.0379953 -0.412359 0 -0.000334815 -0.43665 0 0.00872182 -0.412057 0 
0.0446782 -0.433356 0 0.0232304 -0.437689 0 0.0316155 -0.408828 0 
0.0961676 -0.413228 0 0.0523138 -0.403197 0 0.0728678 -0.412665 0 
0.0902366 -0.438513 0 0.0656292 -0.437221 0 0.114068 -0.436032 0 
0.118731 -0.407892 0 0.142078 -0.412448 0 0.136342 -0.436904 0 
0.189913 -0.409728 0 0.160684 -0.4381 0 0.165973 -0.412543 0 
0.184249 -0.436014 0 0.233758 -0.437819 0 0.213878 -0.415816 0 
0.240604 -0.414014 0 0.207856 -0.438618 0 0.259152 -0.43832 0 
0.285992 -0.43959 0 0.291716 -0.4179 0 0.26618 -0.415203 0 
0.322742 -0.418803 0 0.313307 -0.4388 0 0.336382 -0.40076 0 
0.342213 -0.440448 0 0.374817 -0.414176 0 0.398458 -0.415757 0 
0.353413 -0.422745 0 0.37531 -0.440039 0 0.402167 -0.438581 0 
0.423591 -0.4162 0 0.429293 -0.440198 0 0.448731 -0.423926 0 
0.479345 -0.417585 0 0.489651 -0.4375 0 0.462673 -0.440374 0 
0.458147 -0.40192 0 0.5125 -0.4125 0 0.5375 -0.4125 0 
0.5125 -0.4375 0 0.5375 -0.4375 0 -0.5125 -0.3625 0 
-0.5375 -0.3875 0 -0.5125 -0.3875 0 -0.5375 -0.3625 0 
-0.489515 -0.378699 0 -0.467768 -0.384433 0 -0.469389 -0.355997 0 
-0.447993 -0.367429 0 -0.404976 -0.355495 0 -0.429066 -0.380523 0 
-0.426319 -0.350512 0 -0.407403 -0.381259 0 -0.447024 -0.399107 0 
-0.380905 -0.359762 0 -0.361989 -0.380465 0 -0.384597 -0.385661 0 
-0.301487 -0.397005 0 -0.341779 -0.372066 0 -0.319919 -0.379849 0 
-0.307066 -0.360194 0 -0.287345 -0.37663 0 -0.282292 -0.351044 0 
-0.259949 -0.360089 0 -0.26689 -0.38611 0 -0.229248 -0.368192 0 
-0.217408 -0.399549 0 -0.20711 -0.377269 0 -0.243687 -0.384602 0 
-0.197599 -0.354635 0 -0.186915 -0.388814 0 -0.16159 -0.383092 0 
-0.175174 -0.363824 0 -0.113741 -0.388049 0 -0.137468 -0.362019 0 
-0.110105 -0.364553 0 -0.138383 -0.385376 0 -0.0694784 -0.37452 0 
-0.0883663 -0.35587 0 -0.0887129 -0.38576 0 -0.0481497 -0.383639 0 
-0.0245984 -0.385788 0 -0.047761 -0.356492 0 -0.0241548 -0.361036 0 
0.0241227 -0.384428 0 0.0216529 -0.35295 0 0.000524299 -0.361421 0 
0.000816457 -0.385654 0 0.0407419 -0.369612 0 0.0604409 -0.379737 0 
0.0855928 -0.361881 0 0.0829012 -0.387025 0 0.0641557 -0.351786 0 
0.138043 -0.387534 0 0.105607 -0.385347 0 0.105885 -0.350972 0 
0.122161 -0.369862 0 0.152727 -0.365239 0 0.188874 -0.385821 0 
0.163579 -0.387816 0 0.179345 -0.363034 0 0.200773 -0.350053 0 
0.243575 -0.390372 0 0.21052 -0.372085 0 0.217701 -0.39357 0 
0.234625 -0.36601 0 0.260166 -0.369926 0 0.271018 -0.39342 0 
0.276505 -0.353061 0 0.288826 -0.379045 0 0.3034 -0.399925 0 
0.301507 -0.358548 0 0.335483 -0.369884 0 0.317675 -0.381118 0 
0.356986 -0.392224 0 0.360345 -0.367662 0 0.386023 -0.366837 0 
0.382241 -0.389796 0 0.407482 -0.392322 0 0.439362 -0.371194 0 
0.413586 -0.370558 0 0.434261 -0.394633 0 0.487964 -0.374811 0 
0.486284 -0.352133 0 0.459448 -0.35562 0 0.489353 -0.39922 0 
0.464595 -0.380159 0 0.5125 -0.3875 0 0.5125 -0.3625 0 
0.5375 -0.3875 0 0.5375 -0.3625 0 -0.5125 -0.3375 0 
-0.5125 -0.3125 0 -0.5375 -0.3375 0 -0.5375 -0.3125 0 
-0.468075 -0.32724 0 -0.490114 -0.349465 0 -0.488815 -0.32073 0 
-0.407873 -0.326163 0 -0.428564 -0.320384 0 -0.447354 -0.339227 0 
-0.448911 -0.308398 0 -0.38557 -0.304839 0 -0.386722 -0.333583 0 
-0.361161 -0.348397 0 -0.365598 -0.321175 0 -0.321126 -0.313658 0 
-0.337146 -0.348791 0 -0.315989 -0.338747 0 -0.343504 -0.322816 0 
-0.297995 -0.302226 0 -0.294542 -0.327818 0 -0.269478 -0.329004 0 
-0.275637 -0.30285 0 -0.220238 -0.343707 0 -0.226155 -0.315833 0 
-0.247988 -0.319052 0 -0.202615 -0.326006 0 -0.244087 -0.344548 0 
-0.156845 -0.348921 0 -0.189507 -0.30476 0 -0.166802 -0.31245 0 
-0.179493 -0.334893 0 -0.102066 -0.333948 0 -0.12434 -0.341756 0 
-0.10453 -0.307295 0 -0.126873 -0.315661 0 -0.148186 -0.326661 0 
-0.0510106 -0.323737 0 -0.0671719 -0.303572 0 -0.0810547 -0.322929 0 
-0.0672596 -0.344029 0 -0.0310698 -0.334606 0 -0.00767349 -0.336379 0 
-0.0198256 -0.310458 0 0.00216169 -0.305657 0 0.0352338 -0.31632 0 