# vtk DataFile Version 4.0
vtk output
ASCII
DATASET POLYDATA
FIELD FieldData 4
domain 1 3 string
domain_min:-20|-15
domain_max:20|15
cell_size:0.05

variables 1 2 string
dt:0.000372678
T:1.20743

constants 1 10 string
xsize:2
ysize:1
csize:0.05
dx:0.0238095
h:0.025
rho0:1000
mass:0.566894
g:1|0
c:13.4164
CFL:0.2

functions 1 8 string
time:T=(T+dt)
continuity:rho_dot=((-(rho*sph_D00(v,mass,rho,Wp52220)))+(((0.1*c)*h)*sph_L00(rho,mass,rho,Wp52220)))
irho:rho=(rho+int1((rho_dot,dt))
EOS:p=(((c^2)*(rho-rho0))+10000)
euler:a=if((gid,(0*v),(((-((1/rho)*sph_G11(p,mass,rho,Wp52220)))+(0.01*sph_L00(v,mass,rho,Wp52220)))+g))
vel:v=(v+int1((a,dt))
pos:r=(r+int1((v,dt))
new_dt:dt=(CFL*min((sqrt(((h/fmax(magnitude((a)))),(h/c)))

POINTS 2798 float
-0.5125 -0.4875 0 -0.5375 -0.4625 0 -0.5375 -0.4875 0 
-0.5125 -0.4625 0 -0.487805 -0.4875 0 -0.463415 -0.4875 0 
-0.463415 -0.4625 0 -0.487805 -0.4625 0 -0.439024 -0.4625 0 
-0.414634 -0.4625 0 -0.414634 -0.4875 0 -0.439024 -0.4875 0 
-0.390244 -0.4875 0 -0.365854 -0.4625 0 -0.365854 -0.4875 0 
-0.390244 -0.4625 0 -0.341463 -0.4625 0 -0.317073 -0.4625 0 
-0.317073 -0.4875 0 -0.341463 -0.4875 0 -0.292683 -0.4875 0 
-0.268293 -0.4875 0 -0.292683 -0.4625 0 -0.268293 -0.4625 0 
-0.243902 -0.4625 0 -0.219512 -0.4875 0 -0.243902 -0.4875 0 
-0.219512 -0.4625 0 -0.195122 -0.4875 0 -0.170732 -0.4875 0 
-0.195122 -0.4625 0 -0.170732 -0.4625 0 -0.121951 -0.4875 0 
-0.121951 -0.4625 0 -0.146341 -0.4875 0 -0.146341 -0.4625 0 
-0.097561 -0.4625 0 -0.097561 -0.4875 0 -0.0731707 -0.4625 0 
-0.0731707 -0.4875 0 -0.0487805 -0.4875 0 -0.0243903 -0.4875 0 
-1.86265e-08 -0.4625 0 -1.86265e-08 -0.4875 0 -0.0243903 -0.4625 0 
-0.0487805 -0.4625 0 0.0243902 -0.4875 0 0.0487805 -0.4875 0 
0.0243902 -0.4625 0 0.0487805 -0.4625 0 0.0731707 -0.4875 0 
0.097561 -0.4875 0 0.0731707 -0.4625 0 0.097561 -0.4625 0 
0.146341 -0.4875 0 0.146341 -0.4625 0 0.121951 -0.4625 0 
0.121951 -0.4875 0 0.195122 -0.4875 0 0.195122 -0.4625 0 
0.170732 -0.4625 0 0.170732 -0.4875 0 0.219512 -0.4625 0 
0.219512 -0.4875 0 0.243902 -0.4625 0 0.243902 -0.4875 0 
0.268293 -0.4625 0 0.292683 -0.4875 0 0.292683 -0.4625 0 
0.268293 -0.4875 0 0.317073 -0.4875 0 0.341463 -0.4625 0 
0.341463 -0.4875 0 0.317073 -0.4625 0 0.390244 -0.4625 0 
0.390244 -0.4875 0 0.365854 -0.4625 0 0.365854 -0.4875 0 
0.439024 -0.4625 0 0.414634 -0.4875 0 0.439024 -0.4875 0 
0.414634 -0.4625 0 0.463415 -0.4625 0 0.487805 -0.4875 0 
0.487805 -0.4625 0 0.463415 -0.4875 0 0.5375 -0.4625 0 
0.5125 -0.4625 0 0.5375 -0.4875 0 0.5125 -0.4875 0 
-0.5125 -0.4125 0 -0.5125 -0.4375 0 -0.5375 -0.4375 0 
-0.5375 -0.4125 0 -0.456924 -0.409486 0 -0.466753 -0.433186 0 
-0.489247 -0.411123 0 -0.488143 -0.437334 0 -0.409561 -0.411836 0 
-0.444609 -0.438156 0 -0.433981 -0.411655 0 -0.4211 -0.436731 0 
-0.365631 -0.407616 0 -0.397614 -0.437181 0 -0.377011 -0.432818 0 
-0.3558 -0.437412 0 -0.388066 -0.405018 0 -0.343163 -0.410696 0 
-0.332956 -0.43634 0 -0.310845 -0.435584 0 -0.320155 -0.408843 0 
-0.288783 -0.437145 0 -0.297357 -0.408766 0 -0.275174 -0.412033 0 
-0.265124 -0.436761 0 -0.254681 -0.403499 0 -0.200921 -0.436964 0 
-0.244423 -0.433627 0 -0.223128 -0.435983 0 -0.233773 -0.407127 0 
-0.211803 -0.408687 0 -0.168461 -0.406546 0 -0.189718 -0.410942 0 
-0.177872 -0.436261 0 -0.15627 -0.435805 0 -0.107321 -0.438589 0 
-0.132638 -0.438128 0 -0.10344 -0.402778 0 -0.14606 -0.41145 0 
-0.121825 -0.41469 0 -0.0805824 -0.403339 0 -0.0889285 -0.428829 0 
-0.0689521 -0.438931 0 -0.0596864 -0.414253 0 -0.0181897 -0.405039 0 
-0.0439983 -0.437452 0 -0.04017 -0.404801 0 -0.0241558 -0.431634 0 
-0.00345589 -0.438025 0 0.0280848 -0.410401 0 0.00390219 -0.411344 0 
0.0197996 -0.435661 0 0.042523 -0.437892 0 0.0832899 -0.413317 0 
0.0640839 -0.433627 0 0.0511996 -0.410122 0 0.0867366 -0.437896 0 
0.110472 -0.438511 0 0.103107 -0.405534 0 0.141221 -0.439605 0 
0.12318 -0.421124 0 0.169186 -0.438813 0 0.151863 -0.417294 0 
0.197863 -0.439479 0 0.180093 -0.417828 0 0.207254 -0.418294 0 
0.219552 -0.400466 0 0.238407 -0.421023 0 0.226391 -0.439468 0 
0.273365 -0.424523 0 0.291473 -0.44038 0 0.257206 -0.440366 0 
0.255192 -0.405785 0 0.28976 -0.405801 0 0.324361 -0.405462 0 
0.307913 -0.423179 0 0.324761 -0.440881 0 0.341735 -0.425985 0 
0.360954 -0.440766 0 0.395093 -0.440652 0 0.393069 -0.407351 0 
0.37715 -0.424127 0 0.355958 -0.407277 0 0.413653 -0.428898 0 
0.415123 -0.401913 0 0.433691 -0.439428 0 0.437455 -0.413209 0 
0.461273 -0.416279 0 0.487124 -0.41641 0 0.460062 -0.438931 0 
0.48711 -0.439041 0 0.5125 -0.4375 0 0.5125 -0.4125 0 
0.5375 -0.4125 0 0.5375 -0.4375 0 -0.5375 -0.3875 0 
-0.5375 -0.3625 0 -0.5125 -0.3875 0 -0.5125 -0.3625 0 
-0.460758 -0.370546 0 -0.481653 -0.35581 0 -0.473684 -0.39401 0 
-0.49093 -0.377694 0 -0.438727 -0.355548 0 -0.416233 -0.363192 0 
-0.44276 -0.384579 0 -0.419447 -0.387252 0 -0.365096 -0.381968 0 
-0.379568 -0.363205 0 -0.394704 -0.381428 0 -0.317712 -0.38269 0 
-0.34712 -0.35859 0 -0.341486 -0.383994 0 -0.323429 -0.357397 0 
-0.293559 -0.382986 0 -0.299432 -0.357202 0 -0.270855 -0.382605 0 
-0.276079 -0.355758 0 -0.250164 -0.371592 0 -0.213057 -0.35832 0 
-0.230902 -0.380343 0 -0.20662 -0.382281 0 -0.159983 -0.381531 0 
-0.175928 -0.358775 0 -0.185175 -0.382004 0 -0.136472 -0.388314 0 
-0.115512 -0.38036 0 -0.124246 -0.356284 0 -0.147206 -0.360656 0 
-0.0726209 -0.381365 0 -0.094511 -0.372119 0 -0.0588719 -0.355878 0 
-0.0819235 -0.351277 0 -0.050113 -0.381795 0 -0.028876 -0.373923 0 
-0.0133055 -0.351425 0 -0.00752109 -0.381918 0 0.015913 -0.386084 0 
0.0325989 -0.359097 0 0.0398637 -0.384179 0 0.0088881 -0.359949 0 
0.0845943 -0.378318 0 0.0894524 -0.355161 0 0.0679805 -0.394287 0 
0.0584769 -0.368645 0 0.145763 -0.355436 0 0.108538 -0.382372 0 
0.131605 -0.398501 0 0.138457 -0.377201 0 0.116558 -0.360635 0 
0.167101 -0.373427 0 0.185475 -0.360526 0 0.187518 -0.395485 0 
0.160857 -0.395591 0 0.220839 -0.364741 0 0.236775 -0.386443 0 
0.202855 -0.379571 0 0.271605 -0.388949 0 0.286124 -0.370213 0 
0.252999 -0.370882 0 0.266243 -0.352488 0 0.339231 -0.387346 0 
0.300111 -0.351831 0 0.305396 -0.387965 0 0.319436 -0.369822 0 
0.336832 -0.354995 0 0.375553 -0.356345 0 0.372673 -0.391218 0 
0.392005 -0.378535 0 0.357332 -0.371426 0 0.398956 -0.35287 0 
0.441768 -0.363599 0 0.423009 -0.351443 0 0.440214 -0.388139 0 
0.415626 -0.377544 0 0.488779 -0.366318 0 0.489021 -0.392032 0 
0.464858 -0.39244 0 0.465423 -0.367663 0 0.5375 -0.3625 0 
0.5125 -0.3625 0 0.5125 -0.3875 0 0.5375 -0.3875 0 
-0.5125 -0.3125 0 -0.5375 -0.3125 0 -0.5375 -0.3375 0 
-0.5125 -0.3375 0 -0.490231 -0.334347 0 -0.472086 -0.319529 0 
-0.458642 -0.341791 0 -0.490541 -0.302191 0 -0.45566 -0.300441 0 
-0.422858 -0.334394 0 -0.407358 -0.315831 0 -0.442659 -0.321741 0 
-0.426417 -0.300576 0 -0.385171 -0.328517 0 -0.399159 -0.347333 0 
-0.351388 -0.323337 0 -0.364516 -0.343958 0 -0.371464 -0.308825 0 
-0.33072 -0.332937 0 -0.307044 -0.331254 0 -0.330527 -0.304971 0 
-0.307537 -0.305924 0 -0.283975 -0.303335 0 -0.261778 -0.320437 0 
-0.25483 -0.344845 0 -0.28376 -0.3304 0 -0.232711 -0.346764 0 
-0.219812 -0.326069 0 -0.240649 -0.314543 0 -0.173408 -0.318408 0 
-0.19683 -0.322493 0 -0.194001 -0.346248 0 -0.162304 -0.338574 0 
-0.106188 -0.34383 0 -0.149943 -0.309135 0 -0.138138 -0.33312 0 
-0.122052 -0.318098 0 -0.0742227 -0.32739 0 -0.0519488 -0.326234 0 
-0.0697644 -0.301049 0 -0.0973904 -0.321159 0 -0.00633791 -0.328011 0 
-0.00277685 -0.303596 0 -0.0371804 -0.348146 0 -0.0292764 -0.3212 0 
0.0239079 -0.312123 0 0.0426456 -0.336833 0 0.0167848 -0.334234 0 
0.0655537 -0.346653 0 0.0989112 -0.311237 0 0.0764024 -0.325494 0 
0.0515633 -0.315009 0 0.0732269 -0.30046 0 0.102013 -0.335572 0 
0.126663 -0.337335 0 0.123577 -0.311567 0 0.147496 -0.301103 0 
0.148847 -0.325904 0 0.170155 -0.307603 0 0.18491 -0.326983 0 
0.166695 -0.342266 0 0.203147 -0.34512 0 0.204327 -0.310986 0 
0.220453 -0.32901 0 0.236693 -0.309428 0 0.237236 -0.348549 0 
0.280332 -0.334692 0 0.269969 -0.311597 0 0.25123 -0.328992 0 
0.318824 -0.336776 0 0.337817 -0.320969 0 0.300067 -0.320357 0 
0.319238 -0.304878 0 0.398285 -0.327535 0 0.360618 -0.309122 0 
0.375329 -0.328548 0 0.389152 -0.302956 0 0.35434 -0.340136 0 
0.435862 -0.303487 0 0.444479 -0.332798 0 0.421463 -0.32572 0 
0.463703 -0.342993 0 0.459493 -0.31254 0 0.483353 -0.319696 0 
0.488714 -0.341289 0 0.5375 -0.3375 0 0.5125 -0.3125 0 
0.5125 -0.3375 0 0.5375 -0.3125 0 -0.5125 -0.2875 0 
-0.5125 -0.2625 0 -0.5375 -0.2875 0 -0.5375 -0.2625 0 
-0.45673 -0.263712 0 -0.49079 -0.26821 0 -0.473849 -0.284467 0 
-0.42377 -0.259056 0 -0.410929 -0.279677 0 -0.440256 -0.279997 0 
-0.351147 -0.293262 0 -0.392944 -0.295894 0 -0.372647 -0.279913 0 
-0.355877 -0.261099 0 -0.391512 -0.264101 0 -0.313613 -0.280249 0 
-0.316549 -0.253083 0 -0.335523 -0.273655 0 -0.269006 -0.266252 0 
-0.2906 -0.277848 0 -0.263118 -0.291784 0 -0.29333 -0.251742 0 
-0.203191 -0.272882 0 -0.226275 -0.268721 0 -0.2496 -0.257655 0 
-0.241234 -0.287113 0 -0.218588 -0.298558 0 -0.183482 -0.261718 0 
-0.195073 -0.296157 0 -0.160954 -0.271489 0 -0.172544 -0.291642 0 
-0.141085 -0.288411 0 -0.115433 -0.269416 0 -0.137587 -0.261147 0 
-0.117725 -0.294395 0 -0.067829 -0.274665 0 -0.0931114 -0.296563 0 
-0.091244 -0.271411 0 -0.046947 -0.298212 0 -0.0234828 -0.294284 0 
-0.0216075 -0.26914 0 -0.0449226 -0.27078 0 0.0156076 -0.287886 0 
0.0172648 -0.251856 0 0.0421972 -0.292478 0 0.000636035 -0.270188 0 
0.0341458 -0.268267 0 0.0625528 -0.278349 0 0.0844337 -0.269347 0 
0.0566504 -0.254705 0 0.0983261 -0.28752 0 0.139772 -0.255772 0 
0.149042 -0.277876 0 0.123347 -0.286086 0 0.116379 -0.263372 0 
0.188336 -0.29214 0 0.187503 -0.254205 0 0.171641 -0.275585 0 
0.248366 -0.254133 0 0.203361 -0.272285 0 0.238855 -0.2761 0 
0.219925 -0.291472 0 0.221134 -0.256799 0 0.290353 -0.297689 0 
0.295008 -0.274747 0 0.27066 -0.274769 0 0.256397 -0.292881 0 
0.272673 -0.25121 0 0.319213 -0.282235 0 0.344209 -0.291922 0 
0.30351 -0.253601 0 0.328896 -0.260196 0 0.366215 -0.253357 0 
[...]
POINT_DATA 2798
SCALARS id float
LOOKUP_TABLE default
2620 2601 2600 2621 2640 2642 2643 2641 2645 
2647 2646 2644 2648 2651 2650 2649 2653 2655 
2654 2652 2656 2658 2657 2659 2661 2662 2660 
2663 2664 2666 2665 2667 2670 2671 2668 2669 
2673 2672 2675 2674 2676 2678 2681 2680 2679 
2677 2682 2684 2683 2685 2686 2688 2687 2689 
2692 2693 2691 2690 2696 2697 2695 2694 2699 
2698 2701 2700 2703 2704 2705 2702 2706 2709 
2708 2707 2713 2712 2711 2710 2717 2714 2716 
2715 2719 2720 2721 2718 2743 2723 2742 2722 
2623 2622 2602 2603 1697 1678 1661 1660 1750 
1696 1715 1714 1805 1732 1768 1786 1787 1823 
1804 1822 1841 1840 1859 1877 1858 1895 1912 
1876 1894 1913 1931 1967 1949 1930 1948 1984 
1966 2021 1985 2003 2039 2002 2020 2057 2093 
2038 2075 2056 2074 2129 2111 2092 2110 2165 
2128 2147 2146 2164 2184 2182 2183 2200 2201 
2218 2219 2237 2256 2255 2236 2273 2272 2254 
2274 2292 2310 2291 2290 2309 2308 2326 2346 
2327 2328 2345 2365 2344 2364 2363 2381 2362 
2380 2724 2725 2745 2744 2604 2605 2624 2625 
1698 1680 1679 1662 1734 1751 1716 1733 1806 
1788 1769 1842 1825 1824 1843 1860 1861 1878 
1879 1896 1933 1914 1932 1986 1968 1950 2004 
2022 2023 2005 2058 2040 2077 2059 2076 2094 
2113 2112 2130 2149 2148 2131 2185 2204 2166 
2167 2240 2203 2202 2221 2222 2239 2258 2238 
2220 2276 2275 2257 2293 2295 2294 2278 2329 
2296 2311 2312 2313 2331 2347 2348 2330 2350 
2368 2351 2366 2349 2384 2382 2383 2367 2747 
2727 2726 2746 2627 2607 2606 2626 1663 1699 
1717 1681 1718 1752 1771 1735 1753 1789 1770 
1826 1807 1808 1844 1862 1863 1881 1899 1898 
1897 1880 1915 1934 1916 1969 1952 1951 1987 
2041 2006 2024 2042 2078 2096 2079 2060 2132 
2133 2095 2114 2169 2168 2150 2186 2190 2205 
2187 2189 2206 2223 2207 2208 2224 2225 2242 
2241 2259 2243 2260 2261 2277 2297 2280 2279 
2314 2315 2298 2299 2334 2316 2333 2317 2332 
2353 2369 2352 2386 2370 2387 2385 2748 2729 
2728 2749 2628 2629 2608 2609 1719 1664 1700 
1754 1772 1736 1845 1790 1827 1846 1809 1882 
1883 1864 1918 1900 1917 1901 1971 1954 1936 
1935 1953 1989 1970 2007 1988 2025 2044 2026 
2043 2080 2061 2062 2097 2115 2116 2098 2151 
2152 2188 2134 2170 2172 2155 2171 2173 2140 
2174 2191 2156 2226 2192 2209 2228 2227 2245 
2244 2210 2281 2246 2263 2262 2211 2264 2282 
2194 2229 2247 2265 2300 2283 2354 2335 2336 
2318 2388 2372 2389 2371 2731 2750 2751 2730 
2631 2610 2630 2611 1683 1701 1665 1682 1791 
1737 1773 1720 1792 1828 1810 1847 1829 1848 
1884 1866 1865 1919 1937 1920 1902 1938 1955 
1956 1972 1973 1991 1990 2008 2027 2028 2009 
2010 2045 2046 2064 2081 2063 2099 2082 2117 
2100 2136 2153 2135 2118 2120 2139 2137 2121 
2154 2071 2123 2122 2089 2138 2141 2157 2158 
2053 2159 2175 2193 2036 2176 2124 2177 2054 
1893 2212 2072 1929 2018 2230 2125 2142 2284 
2195 2266 2248 2390 2337 2267 2391 2733 2753 
2752 2732 2632 2613 2633 2612 1667 1666 1684 
1702 1721 1738 1774 1755 1830 1811 1831 1793 
1849 1868 1867 1813 1885 1904 1903 1921 1957 
1940 1939 1924 1977 1958 1974 1975 1976 1994 
1993 2011 1992 2012 2030 2029 2047 2065 2101 
2083 2048 2084 2066 2103 2102 2119 2068 2085 
2086 2104 2050 2087 2105 2033 2069 2106 2070 
2088 2052 1839 1857 2051 2000 2035 2107 180 
1821 1946 1838 1911 21 1522 1441 1581 140 
1461 340 1362 1875 2373 2231 2090 2355 2301 
2735 2734 2755 2754 2635 2615 2634 2614 1685 
1669 1668 1703 1756 1776 1739 1757 1794 1812 
1775 1832 1851 1850 1869 1922 1870 1816 1886 
1887 1923 1852 1905 1871 1835 1817 1925 1959 
1941 1960 1944 2013 1978 1995 2031 1996 2014 
1962 2067 1874 1997 2049 2032 1785 2015 1892 
1980 2016 1999 2034 2017 1963 1998 1982 1803 
1964 1981 40 1 1600 1181 1201 1361 1541 
1928 1561 120 1301 1521 60 1481 100 1620 
280 0 2213 320 2757 2756 2736 2737 2636 
2616 2637 2617 1704 1740 1723 1722 1686 1759 
1741 1758 1795 1833 1778 1777 1814 1815 1779 
1780 1691 1796 1689 1834 1726 1727 1745 1781 
1797 1674 1711 1746 1798 1100 1763 1728 1799 
1180 1906 820 1695 1927 1943 1888 1909 1961 
1783 1979 1889 1942 1890 1926 80 1908 1801 
1945 1856 1818 1837 1748 1819 1891 1873 1749 
1731 1560 160 1712 1910 1713 1241 1820 1580 
1802 1540 1261 1766 1420 1141 1460 1281 1101 
1122 1161 20 1400 1183 1341 1321 1221 2758 
2739 2738 2759 2566 2567 2564 2565 2571 2570 
2568 2569 2572 2574 2573 2575 2578 2576 2577 
2579 2581 2583 2580 2582 2584 2585 2586 2587 
2589 2588 2591 2590 2594 2593 2595 2592 2596 
2597 2598 2599 2639 2618 2638 2619 1671 1670 
1705 1687 1760 1724 1742 1688 1743 1761 2396 
1725 1744 1672 1708 1762 1707 800 1673 2361 
461 1140 2343 2145 1020 1710 1709 660 1080 
762 1676 1120 2397 1060 462 542 900 761 
1853 780 601 1693 1220 482 1872 1764 1855 
1160 1907 1854 1836 1765 1300 1380 1729 1280 
1730 1784 1500 881 1782 1001 1767 1747 1340 
1520 802 1360 1040 1041 1260 1320 861 1440 
1480 822 1081 862 1102 1242 941 1121 2741 
2740 2760 2761 2764 2763 2762 2765 2768 2769 
2767 2766 2773 2772 2770 2771 2775 2776 2777 
2774 2778 2780 2779 2781 2783 2784 2785 2782 
2786 2789 2787 2788 2791 2792 2790 2793 2795 
2794 2797 2796 2232 1342 1204 2356 1382 2250 
2214 1523 2215 1303 1283 2126 2303 300 1582 
2251 201 2161 2374 161 2357 2179 2234 2198 
2305 2216 41 2252 2233 2339 2323 2375 2376 
2358 2180 2393 2321 2163 2055 2359 1983 2287 
2395 2304 2360 2235 2270 2109 640 2306 2394 
2253 2377 163 1706 840 341 2341 2324 2271 
2307 2199 2217 2342 2325 2288 460 2127 680 
2378 421 420 223 860 1675 1690 700 2289 
560 561 2379 620 540 481 263 740 422 
720 442 501 541 1692 521 1200 363 1800 
721 1677 1694 920 880 661 621 463 722 
682 701 423 1240 681 641 980 940 801 
901 703 921 981 781 1000 742 782 1061 
783 1062 1202 1082 843 2285 1401 1021 1142 
1282 942 2178 883 2319 962 903 1601 1262 
1222 2160 2249 1243 1182 1381 1203 220 2338 
1543 1184 1421 2302 260 1023 1322 1402 240 
2392 2320 1502 1947 2143 181 1143 1024 1064 
1621 1542 1144 1045 1124 1004 1302 1185 1105 
1164 1263 1145 2196 1086 1562 1422 1483 1106 
1482 2108 1501 1544 1641 1383 1264 1344 1463 
200 1602 162 1564 1563 1503 1443 141 81 
2162 143 61 2197 42 2037 1622 360 182 
2268 83 2019 23 2286 2073 2269 2001 500 
22 2340 3 1644 480 1643 63 2091 440 
2322 380 520 400 43 261 104 281 221 
144 44 241 441 362 321 124 105 2181 
282 302 600 580 262 184 301 361 381 
283 401 224 244 342 264 323 382 402 
322 383 303 343 304 443 324 403 364 
760 344 404 522 582 581 483 960 583 
602 563 683 622 702 662 841 741 643 
821 723 664 961 663 803 763 1002 743 
804 823 824 882 1043 922 744 923 1063 
1640 982 863 1022 1083 844 943 1162 864 
1163 1044 963 1103 1042 1223 1123 983 1003 
846 905 866 944 885 964 886 984 925 
1025 985 1084 1104 1046 1065 1085 1066 1224 
1125 1026 1442 1087 1126 1205 1363 1225 1165 
1343 1186 1244 1323 1423 1462 1265 1403 1304 
1364 1404 1365 1385 1384 1366 1345 1325 1424 
1524 1346 2144 1642 1444 121 1405 1464 1583 
1545 142 84 1965 2 103 82 102 1623 
1603 1604 101 122 1585 1505 123 1605 1565 
1625 1624 4 62 25 64 5 26 45 
6 85 27 65 183 222 66 242 86 
203 202 204 165 166 164 147 146 205 
243 186 245 225 185 206 284 285 226 
325 305 266 365 424 384 346 345 502 
444 405 385 562 523 543 503 544 464 
484 642 623 603 524 504 564 684 604 
624 644 565 645 585 605 665 625 704 
842 724 764 902 705 784 825 805 786 
785 845 806 884 766 904 865 924 826 
847 867 808 827 848 887 906 868 907 
945 965 888 926 966 947 986 946 987 
1005 1006 967 1068 1067 1027 1007 1047 1107 
1088 1089 1108 1146 1284 1128 1245 1166 1147 
1206 1226 1207 1187 1227 1208 1246 1285 1228 
1305 1266 1267 1324 1306 1286 1326 1406 1367 
1386 1426 1347 1425 1387 1484 1445 1584 1504 
1467 1465 1525 1466 1485 1486 1506 1487 1546 
1566 1526 1586 1547 1645 1567 1527 24 1646 
1626 1606 1627 1647 46 1648 7 47 28 
67 8 48 145 87 106 107 126 125 
88 108 127 148 187 167 227 207 189 
188 265 247 246 208 286 287 267 306 
326 307 386 327 366 406 367 425 347 
445 387 407 465 426 505 466 485 446 
525 506 486 584 526 546 545 586 547 
566 567 626 606 646 685 607 587 687 
725 666 627 686 765 667 706 745 746 
726 727 787 747 788 807 767 809 789 
828 869 829 850 849 870 890 889 908 
909 910 928 929 948 927 949 968 969 
988 989 1028 1008 1009 1069 1029 1048 1049 
1110 1109 1127 1090 1130 1148 1149 1167 1168 
1129 1189 1209 1188 1229 1248 1247 1268 1307 
1288 1287 1269 1309 1308 1289 1327 1328 1348 
1368 1329 1388 1427 1408 1407 1409 1429 1446 
1447 1428 1468 1449 1469 1448 1509 1489 1508 
1488 1507 1529 1548 1528 1608 1568 1587 1607 
1589 1588 1629 1609 1630 1628 10 1650 1649 
9 29 49 68 89 69 90 70 109 
129 168 128 149 169 190 170 228 209 
229 248 269 268 249 288 289 309 308 
368 348 329 349 328 369 408 388 409 
428 447 429 427 449 448 487 467 468 
488 507 527 508 548 549 528 568 589 
608 588 569 648 628 629 647 609 707 
668 669 688 649 729 728 708 709 689 
749 769 748 768 771 791 790 810 811 
852 851 830 831 892 871 891 872 912 
930 931 911 971 951 950 970 1010 1011 
990 991 1031 1051 1030 1050 1111 1070 1091 
1071 1092 1112 1132 1150 1151 1131 1190 1170 
1169 1191 1211 1230 1210 1231 1250 1270 1251 
1271 1249 1290 1291 1310 1311 1331 1349 1351 
1350 1330 1369 1389 1370 1390 1430 1411 1410 
1431 1450 1451 1470 1490 1511 1491 1471 1510 
1530 1531 1551 1549 1550 1570 1571 1569 1631 
1591 1590 1610 1611 1651 1652 11 51 50 
30 31 71 72 91 110 130 131 111 
150 151 171 172 191 210 192 231 211 
230 250 272 251 270 271 310 311 291 
290 351 331 350 330 389 390 371 370 
410 431 430 411 470 451 469 471 450 
510 509 489 490 529 530 551 550 570 
590 591 571 630 611 631 610 671 650 
651 670 691 690 711 710 770 731 751 
730 750 772 813 792 793 773 812 832 
853 833 894 893 873 913 933 914 932 
953 973 952 972 993 1013 992 1012 1052 
1032 1053 1033 1073 1093 1072 1134 1113 1114 
1133 1172 1152 1171 1153 1213 1192 1212 1233 
1232 1253 1273 1252 1272 1313 1312 1292 1293 
1352 1353 1333 1332 1392 1391 1371 1372 1373 
1433 1413 1412 1432 1452 1453 1472 1473 1492 
1493 1512 1513 1532 1533 1552 1553 1573 1572 
1593 1592 1613 1633 1612 1632 1653 12 13 
33 53 32 52 93 92 73 133 112 
132 113 194 173 152 153 213 212 193 
232 233 253 252 273 312 313 294 293 
292 353 332 333 352 391 372 393 392 
373 412 433 413 432 452 453 472 473 
512 511 492 491 552 553 531 532 573 
593 592 572 633 613 632 612 673 653 
672 652 712 713 692 693 732 733 753 
752 814 795 815 794 774 855 835 834 
854 916 874 875 895 955 935 934 915 
975 995 974 954 1014 994 1015 1035 1034 
1054 1075 1055 1094 1115 1074 1095 1136 1175 
1135 1154 1155 1215 1174 1195 1173 1194 1193 
1255 1234 1235 1214 1275 1274 1254 1294 1314 
1315 1295 1335 1354 1334 1355 1393 1375 1395 
1374 1394 1435 1414 1434 1415 1454 1455 1475 
1474 1515 1514 1495 1494 1554 1555 1534 1535 
1575 1595 1574 1594 1635 1614 1615 1634 15 
1655 1654 14 34 35 54 55 94 74 
75 95 114 155 135 134 115 154 175 
174 195 214 235 234 215 254 255 274 
275 315 295 314 334 335 355 375 354 
374 394 395 434 435 414 415 455 495 
475 474 454 494 493 514 513 534 555 
554 533 575 574 594 595 635 615 614 
634 674 675 654 655 715 694 714 695 
754 735 734 755 775 796 897 816 836 
877 937 856 876 917 936 896 957 977 
976 956 997 1017 1037 996 1016 1057 1077 
1097 1036 1056 1076 1117 1096 1137 1116 1177 
1157 1156 1217 1176 1197 1257 1237 1216 1196 
1277 1297 1256 1236 1296 1337 1276 1317 1336 
1377 1357 1316 1376 1356 1397 1417 1437 1396 
1457 1416 1477 1497 1436 1517 1456 1476 1537 
1516 1577 1557 1496 1536 1556 1617 1597 1576 
1657 1637 1596 37 17 1616 1636 36 16 
97 1656 57 77 117 137 56 76 177 
157 96 116 197 136 156 217 237 176 
277 196 257 256 317 297 236 216 337 
357 296 276 377 397 316 417 336 356 
396 457 437 376 416 477 497 436 476 
456 537 517 516 577 496 557 536 617 
597 515 535 637 576 657 556 697 677 
616 596 636 717 656 737 676 757 777 
696 817 736 797 716 837 776 756 857 
1158 219 239 1178 1198 279 259 299 1218 
319 1238 1278 339 359 1258 1298 379 399 
1318 1338 1358 439 419 1398 459 479 1378 
1438 499 519 1418 1458 1478 579 539 559 
1498 1518 599 619 1538 659 1558 1578 639 
699 679 1598 1618 719 1658 739 1638 38 
18 799 779 759 819 839 78 58 98 
859 879 118 158 899 919 138 198 218 
939 959 178 979 999 258 238 298 1039 
1059 278 1019 318 338 1079 1099 358 378 
1139 1119 398 418 1159 1179 1219 1199 478 
458 438 498 1259 1239 518 538 558 1299 
1279 1319 598 578 1339 658 638 618 1379 
1359 678 1419 1399 698 1459 1439 718 738 
778 758 1479 1499 1539 818 1519 798 1559 
838 1579 1599 858 878 1619 898 1639 918 
1659 938 39 978 19 958 79 1018 59 
998 119 99 1058 1038 1098 139 159 1078 
1138 1118 199 179 2401 2398 2400 2399 2403 
2405 2402 2404 2409 2408 2406 2407 2411 2412 
2410 2413 2414 2416 2415 2417 2418 2419 2420 
2421 2426 2423 2425 2427 2424 2422 2430 2429 
2431 2428 2432 2434 2435 2433 2439 2438 2436 
2437 2441 2443 2440 2442 2444 2447 2445 2446 
2448 2451 2450 2449 2455 2452 2453 2454 2458 
2456 2457 2459 2463 2461 2460 2462 2464 2466 
2467 2465 2469 2471 2470 2468 2472 2473 2475 
2474 2476 2479 2477 2481 2480 2478 2485 2484 
2483 2482 2489 2486 2488 2487 2493 2492 2490 
2491 2497 2496 2495 2494 2500 2498 2499 2501 
2505 2503 2504 2502 2509 2508 2507 2506 2511 
2512 2513 2510 2516 2514 2515 2517 2518 2519 
2521 2520 2524 2525 2522 2523 2527 2528 2529 
2526 2530 2531 2532 2533 2534 2535 2536 2537 
2538 2539 2540 2541 2543 2542 2544 2545 2546 
2547 2548 2551 2550 2549 2554 2555 2553 2552 
2558 2556 2557 2559 2560 2561 2562 2563 
FIELD FieldData 7
r 3 2798 float
-0.5125 -0.4875 0 -0.5375 -0.4625 0 -0.5375 -0.4875 0 
-0.5125 -0.4625 0 -0.487805 -0.4875 0 -0.463415 -0.4875 0 
-0.463415 -0.4625 0 -0.487805 -0.4625 0 -0.439024 -0.4625 0 
-0.414634 -0.4625 0 -0.414634 -0.4875 0 -0.439024 -0.4875 0 
-0.390244 -0.4875 0 -0.365854 -0.4625 0 -0.365854 -0.4875 0 
-0.390244 -0.4625 0 -0.341463 -0.4625 0 -0.317073 -0.4625 0 
-0.317073 -0.4875 0 -0.341463 -0.4875 0 -0.292683 -0.4875 0 
-0.268293 -0.4875 0 -0.292683 -0.4625 0 -0.268293 -0.4625 0 
-0.243902 -0.4625 0 -0.219512 -0.4875 0 -0.243902 -0.4875 0 
-0.219512 -0.4625 0 -0.195122 -0.4875 0 -0.170732 -0.4875 0 
-0.195122 -0.4625 0 -0.170732 -0.4625 0 -0.121951 -0.4875 0 
-0.121951 -0.4625 0 -0.146341 -0.4875 0 -0.146341 -0.4625 0 
-0.097561 -0.4625 0 -0.097561 -0.4875 0 -0.0731707 -0.4625 0 
-0.0731707 -0.4875 0 -0.0487805 -0.4875 0 -0.0243903 -0.4875 0 
-1.86265e-08 -0.4625 0 -1.86265e-08 -0.4875 0 -0.0243903 -0.4625 0 
-0.0487805 -0.4625 0 0.0243902 -0.4875 0 0.0487805 -0.4875 0 
0.0243902 -0.4625 0 0.0487805 -0.4625 0 0.0731707 -0.4875 0 
0.097561 -0.4875 0 0.0731707 -0.4625 0 0.097561 -0.4625 0 
0.146341 -0.4875 0 0.146341 -0.4625 0 0.121951 -0.4625 0 
0.121951 -0.4875 0 0.195122 -0.4875 0 0.195122 -0.4625 0 
0.170732 -0.4625 0 0.170732 -0.4875 0 0.219512 -0.4625 0 
0.219512 -0.4875 0 0.243902 -0.4625 0 0.243902 -0.4875 0 
0.268293 -0.4625 0 0.292683 -0.4875 0 0.292683 -0.4625 0 
0.268293 -0.4875 0 0.317073 -0.4875 0 0.341463 -0.4625 0 
0.341463 -0.4875 0 0.317073 -0.4625 0 0.390244 -0.4625 0 
0.390244 -0.4875 0 0.365854 -0.4625 0 0.365854 -0.4875 0 
0.439024 -0.4625 0 0.414634 -0.4875 0 0.439024 -0.4875 0 
0.414634 -0.4625 0 0.463415 -0.4625 0 0.487805 -0.4875 0 
0.487805 -0.4625 0 0.463415 -0.4875 0 0.5375 -0.4625 0 
0.5125 -0.4625 0 0.5375 -0.4875 0 0.5125 -0.4875 0 
-0.5125 -0.4125 0 -0.5125 -0.4375 0 -0.5375 -0.4375 0 
-0.5375 -0.4125 0 -0.456924 -0.409486 0 -0.466753 -0.433186 0 
-0.489247 -0.411123 0 -0.488143 -0.437334 0 -0.409561 -0.411836 0 
-0.444609 -0.438156 0 -0.433981 -0.411655 0 -0.4211 -0.436731 0 
-0.365631 -0.407616 0 -0.397614 -0.437181 0 -0.377011 -0.432818 0 
-0.3558 -0.437412 0 -0.388066 -0.405018 0 -0.343163 -0.410696 0 
-0.332956 -0.43634 0 -0.310845 -0.435584 0 -0.320155 -0.408843 0 
-0.288783 -0.437145 0 -0.297357 -0.408766 0 -0.275174 -0.412033 0 
-0.265124 -0.436761 0 -0.254681 -0.403499 0 -0.200921 -0.436964 0 
-0.244423 -0.433627 0 -0.223128 -0.435983 0 -0.233773 -0.407127 0 
-0.211803 -0.408687 0 -0.168461 -0.406546 0 -0.189718 -0.410942 0 
-0.177872 -0.436261 0 -0.15627 -0.435805 0 -0.107321 -0.438589 0 
-0.132638 -0.438128 0 -0.10344 -0.402778 0 -0.14606 -0.41145 0 
-0.121825 -0.41469 0 -0.0805824 -0.403339 0 -0.0889285 -0.428829 0 
-0.0689521 -0.438931 0 -0.0596864 -0.414253 0 -0.0181897 -0.405039 0 
-0.0439983 -0.437452 0 -0.04017 -0.404801 0 -0.0241558 -0.431634 0 
-0.00345589 -0.438025 0 0.0280848 -0.410401 0 0.00390219 -0.411344 0 
0.0197996 -0.435661 0 0.042523 -0.437892 0 0.0832899 -0.413317 0 
0.0640839 -0.433627 0 0.0511996 -0.410122 0 0.0867366 -0.437896 0 
0.110472 -0.438511 0 0.103107 -0.405534 0 0.141221 -0.439605 0 
0.12318 -0.421124 0 0.169186 -0.438813 0 0.151863 -0.417294 0 
0.197863 -0.439479 0 0.180093 -0.417828 0 0.207254 -0.418294 0 
0.219552 -0.400466 0 0.238407 -0.421023 0 0.226391 -0.439468 0 
0.273365 -0.424523 0 0.291473 -0.44038 0 0.257206 -0.440366 0 
0.255192 -0.405785 0 0.28976 -0.405801 0 0.324361 -0.405462 0 
0.307913 -0.423179 0 0.324761 -0.440881 0 0.341735 -0.425985 0 
0.360954 -0.440766 0 0.395093 -0.440652 0 0.393069 -0.407351 0 
0.37715 -0.424127 0 0.355958 -0.407277 0 0.413653 -0.428898 0 
0.415123 -0.401913 0 0.433691 -0.439428 0 0.437455 -0.413209 0 
0.461273 -0.416279 0 0.487124 -0.41641 0 0.460062 -0.438931 0 
0.48711 -0.439041 0 0.5125 -0.4375 0 0.5125 -0.4125 0 
0.5375 -0.4125 0 0.5375 -0.4375 0 -0.5375 -0.3875 0 
-0.5375 -0.3625 0 -0.5125 -0.3875 0 -0.5125 -0.3625 0 
-0.460758 -0.370546 0 -0.481653 -0.35581 0 -0.473684 -0.39401 0 
-0.49093 -0.377694 0 -0.438727 -0.355548 0 -0.416233 -0.363192 0 
-0.44276 -0.384579 0 -0.419447 -0.387252 0 -0.365096 -0.381968 0 
-0.379568 -0.363205 0 -0.394704 -0.381428 0 -0.317712 -0.38269 0 
-0.34712 -0.35859 0 -0.341486 -0.383994 0 -0.323429 -0.357397 0 
-0.293559 -0.382986 0 -0.299432 -0.357202 0 -0.270855 -0.382605 0 
-0.276079 -0.355758 0 -0.250164 -0.371592 0 -0.213057 -0.35832 0 
-0.230902 -0.380343 0 -0.20662 -0.382281 0 -0.159983 -0.381531 0 
-0.175928 -0.358775 0 -0.185175 -0.382004 0 -0.136472 -0.388314 0 
-0.115512 -0.38036 0 -0.124246 -0.356284 0 -0.147206 -0.360656 0 
-0.0726209 -0.381365 0 -0.094511 -0.372119 0 -0.0588719 -0.355878 0 
-0.0819235 -0.351277 0 -0.050113 -0.381795 0 -0.028876 -0.373923 0 
-0.0133055 -0.351425 0 -0.00752109 -0.381918 0 0.015913 -0.386084 0 
0.0325989 -0.359097 0 0.0398637 -0.384179 0 0.0088881 -0.359949 0 
0.0845943 -0.378318 0 0.0894524 -0.355161 0 0.0679805 -0.394287 0 
0.0584769 -0.368645 0 0.145763 -0.355436 0 0.108538 -0.382372 0 
0.131605 -0.398501 0 0.138457 -0.377201 0 0.116558 -0.360635 0 
0.167101 -0.373427 0 0.185475 -0.360526 0 0.187518 -0.395485 0 
0.160857 -0.395591 0 0.220839 -0.364741 0 0.236775 -0.386443 0 
0.202855 -0.379571 0 0.271605 -0.388949 0 0.286124 -0.370213 0 
0.252999 -0.370882 0 0.266243 -0.352488 0 0.339231 -0.387346 0 
0.300111 -0.351831 0 0.305396 -0.387965 0 0.319436 -0.369822 0 
0.336832 -0.354995 0 0.375553 -0.356345 0 0.372673 -0.391218 0 
0.392005 -0.378535 0 0.357332 -0.371426 0 0.398956 -0.35287 0 
0.441768 -0.363599 0 0.423009 -0.351443 0 0.440214 -0.388139 0 
0.415626 -0.377544 0 0.488779 -0.366318 0 0.489021 -0.392032 0 
0.464858 -0.39244 0 0.465423 -0.367663 0 0.5375 -0.3625 0 
0.5125 -0.3625 0 0.5125 -0.3875 0 0.5375 -0.3875 0 
-0.5125 -0.3125 0 -0.5375 -0.3125 0 -0.5375 -0.3375 0 
-0.5125 -0.3375 0 -0.490231 -0.334347 0 -0.472086 -0.319529 0 
-0.458642 -0.341791 0 -0.490541 -0.302191 0 -0.45566 -0.300441 0 
-0.422858 -0.334394 0 -0.407358 -0.315831 0 -0.442659 -0.321741 0 
-0.426417 -0.300576 0 -0.385171 -0.328517 0 -0.399159 -0.347333 0 
-0.351388 -0.323337 0 -0.364516 -0.343958 0 -0.371464 -0.308825 0 
-0.33072 -0.332937 0 -0.307044 -0.331254 0 -0.330527 -0.304971 0 
-0.307537 -0.305924 0 -0.283975 -0.303335 0 -0.261778 -0.320437 0 
-0.25483 -0.344845 0 -0.28376 -0.3304 0 -0.232711 -0.346764 0 
-0.219812 -0.326069 0 -0.240649 -0.314543 0 -0.173408 -0.318408 0 
-0.19683 -0.322493 0 -0.194001 -0.346248 0 -0.162304 -0.338574 0 
-0.106188 -0.34383 0 -0.149943 -0.309135 0 -0.138138 -0.33312 0 
-0.122052 -0.318098 0 -0.0742227 -0.32739 0 -0.0519488 -0.326234 0 
-0.0697644 -0.301049 0 -0.0973904 -0.321159 0 -0.00633791 -0.328011 0 
-0.00277685 -0.303596 0 -0.0371804 -0.348146 0 -0.0292764 -0.3212 0 