# vtk DataFile Version 4.0
vtk output
ASCII
DATASET POLYDATA
FIELD FieldData 4
domain 1 3 string
domain_min:-20|-15
domain_max:20|15
cell_size:0.05

variables 1 2 string
dt:0.000372678
T:2.19346

constants 1 10 string
xsize:2
ysize:1
csize:0.05
dx:0.0238095
h:0.025
rho0:1000
mass:0.566894
g:1|0
c:13.4164
CFL:0.2

functions 1 8 string
time:T=(T+dt)
continuity:rho_dot=((-(rho*sph_D00(v,mass,rho,Wp52220)))+(((0.1*c)*h)*sph_L00(rho,mass,rho,Wp52220)))
irho:rho=(rho+int1((rho_dot,dt))
EOS:p=(((c^2)*(rho-rho0))+10000)
euler:a=if((gid,(0*v),(((-((1/rho)*sph_G11(p,mass,rho,Wp52220)))+(0.01*sph_L00(v,mass,rho,Wp52220)))+g))
vel:v=(v+int1((a,dt))
pos:r=(r+int1((v,dt))
new_dt:dt=(CFL*min((sqrt(((h/fmax(magnitude((a)))),(h/c)))

POINTS 2798 float
-0.5125 -0.4875 0 -0.5125 -0.4625 0 -0.5375 -0.4875 0 
-0.5375 -0.4625 0 -0.487805 -0.4875 0 -0.487805 -0.4625 0 
-0.463415 -0.4875 0 -0.463415 -0.4625 0 -0.414634 -0.4625 0 
-0.414634 -0.4875 0 -0.439024 -0.4875 0 -0.439024 -0.4625 0 
-0.365854 -0.4875 0 -0.365854 -0.4625 0 -0.390244 -0.4625 0 
-0.390244 -0.4875 0 -0.341463 -0.4625 0 -0.341463 -0.4875 0 
-0.317073 -0.4875 0 -0.317073 -0.4625 0 -0.268293 -0.4625 0 
-0.292683 -0.4625 0 -0.292683 -0.4875 0 -0.268293 -0.4875 0 
-0.219512 -0.4875 0 -0.243902 -0.4625 0 -0.219512 -0.4625 0 
-0.243902 -0.4875 0 -0.170732 -0.4875 0 -0.195122 -0.4875 0 
-0.195122 -0.4625 0 -0.170732 -0.4625 0 -0.146341 -0.4625 0 
-0.121951 -0.4625 0 -0.146341 -0.4875 0 -0.121951 -0.4875 0 
-0.097561 -0.4625 0 -0.0731707 -0.4875 0 -0.097561 -0.4875 0 
-0.0731707 -0.4625 0 -0.0487805 -0.4625 0 -1.86265e-08 -0.4875 0 
-0.0487805 -0.4875 0 -0.0243903 -0.4625 0 -1.86265e-08 -0.4625 0 
-0.0243903 -0.4875 0 0.0487805 -0.4875 0 0.0487805 -0.4625 0 
0.0243902 -0.4625 0 0.0243902 -0.4875 0 0.097561 -0.4875 0 
0.097561 -0.4625 0 0.0731707 -0.4875 0 0.0731707 -0.4625 0 
0.146341 -0.4875 0 0.146341 -0.4625 0 0.121951 -0.4625 0 
0.121951 -0.4875 0 0.170732 -0.4875 0 0.195122 -0.4875 0 
0.170732 -0.4625 0 0.195122 -0.4625 0 0.243902 -0.4875 0 
0.243902 -0.4625 0 0.219512 -0.4625 0 0.219512 -0.4875 0 
0.292683 -0.4875 0 0.268293 -0.4875 0 0.292683 -0.4625 0 
0.268293 -0.4625 0 0.341463 -0.4875 0 0.341463 -0.4625 0 
0.317073 -0.4875 0 0.317073 -0.4625 0 0.390244 -0.4625 0 
0.365854 -0.4625 0 0.365854 -0.4875 0 0.390244 -0.4875 0 
0.439024 -0.4625 0 0.414634 -0.4625 0 0.439024 -0.4875 0 
0.414634 -0.4875 0 0.463415 -0.4875 0 0.487805 -0.4625 0 
0.487805 -0.4875 0 0.463415 -0.4625 0 0.5375 -0.4625 0 
0.5375 -0.4875 0 0.5125 -0.4625 0 0.5125 -0.4875 0 
-0.5375 -0.4375 0 -0.5125 -0.4375 0 -0.5375 -0.4125 0 
-0.5125 -0.4125 0 -0.488094 -0.436178 0 -0.465347 -0.438069 0 
-0.467924 -0.405008 0 -0.48868 -0.410931 0 -0.410689 -0.437679 0 
-0.435698 -0.438643 0 -0.419601 -0.413911 0 -0.4496 -0.420514 0 
-0.36484 -0.437056 0 -0.396736 -0.410216 0 -0.387421 -0.436119 0 
-0.373254 -0.410064 0 -0.325839 -0.412315 0 -0.300616 -0.423781 0 
-0.349957 -0.411922 0 -0.316965 -0.439311 0 -0.341172 -0.436753 0 
-0.283871 -0.43989 0 -0.257573 -0.403455 0 -0.262429 -0.4324 0 
-0.278196 -0.408934 0 -0.24132 -0.43798 0 -0.236121 -0.412048 0 
-0.214031 -0.407901 0 -0.217764 -0.435506 0 -0.155619 -0.410915 0 
-0.173393 -0.432352 0 -0.152237 -0.438202 0 -0.191963 -0.412047 0 
-0.195109 -0.438418 0 -0.128648 -0.436461 0 -0.106362 -0.436145 0 
-0.132778 -0.411037 0 -0.109848 -0.408225 0 -0.087833 -0.410808 0 
-0.0837283 -0.436949 0 -0.060872 -0.436945 0 -0.0636384 -0.410999 0 
-0.0409278 -0.409005 0 -0.0385182 -0.436287 0 -0.0180246 -0.410089 0 
-0.016402 -0.436676 0 0.00442998 -0.408659 0 0.0262339 -0.407236 0 
0.048789 -0.437498 0 0.0268384 -0.434958 0 0.0491662 -0.411236 0 
0.00566537 -0.436489 0 0.071455 -0.436121 0 0.0973545 -0.411775 0 
0.0728092 -0.409916 0 0.0938652 -0.436917 0 0.123771 -0.413782 0 
0.1421 -0.438982 0 0.117183 -0.437103 0 0.180152 -0.413176 0 
0.150468 -0.417101 0 0.168308 -0.437601 0 0.19201 -0.436295 0 
0.20379 -0.409726 0 0.24498 -0.439247 0 0.215374 -0.438847 0 
0.239167 -0.400786 0 0.228036 -0.420103 0 0.288651 -0.417532 0 
0.259221 -0.418606 0 0.2731 -0.439175 0 0.322835 -0.436717 0 
0.329408 -0.413476 0 0.308589 -0.405192 0 0.300239 -0.437794 0 
0.347292 -0.438118 0 0.355234 -0.414069 0 0.371852 -0.43732 0 
0.396769 -0.438665 0 0.382672 -0.414717 0 0.443134 -0.427828 0 
0.425016 -0.440716 0 0.437073 -0.405633 0 0.410925 -0.419779 0 
0.487264 -0.43871 0 0.464739 -0.408851 0 0.461907 -0.438425 0 
0.486927 -0.416579 0 0.5375 -0.4375 0 0.5375 -0.4125 0 
0.5125 -0.4375 0 0.5125 -0.4125 0 -0.5125 -0.3625 0 
-0.5375 -0.3625 0 -0.5125 -0.3875 0 -0.5375 -0.3875 0 
-0.475658 -0.365623 0 -0.45852 -0.383555 0 -0.489794 -0.383105 0 
-0.439901 -0.367165 0 -0.436619 -0.398197 0 -0.416413 -0.353389 0 
-0.419585 -0.381108 0 -0.373367 -0.383252 0 -0.393693 -0.361262 0 
-0.397582 -0.385908 0 -0.363624 -0.360566 0 -0.306568 -0.370149 0 
-0.301654 -0.398599 0 -0.337838 -0.363672 0 -0.349404 -0.387095 0 
-0.324759 -0.38686 0 -0.262603 -0.374911 0 -0.283457 -0.380682 0 
-0.288736 -0.351774 0 -0.240119 -0.383455 0 -0.217517 -0.381383 0 
-0.21989 -0.356629 0 -0.243121 -0.355238 0 -0.173876 -0.397518 0 
-0.185134 -0.361819 0 -0.163537 -0.374935 0 -0.195321 -0.382443 0 
-0.119103 -0.383471 0 -0.138572 -0.358556 0 -0.11408 -0.358821 0 
-0.142459 -0.385191 0 -0.0624074 -0.364661 0 -0.094932 -0.382469 0 
-0.0871026 -0.358609 0 -0.0716884 -0.387548 0 -0.0341855 -0.359279 0 
-0.0107484 -0.357449 0 -0.0206721 -0.384072 0 -0.0451692 -0.383725 0 
0.0342913 -0.352897 0 0.0250072 -0.379465 0 0.00262866 -0.381763 0 
0.0121659 -0.353462 0 0.0474973 -0.385656 0 0.0727605 -0.385679 0 
0.0852583 -0.365752 0 0.0553881 -0.362535 0 0.145471 -0.376849 0 
0.113521 -0.369657 0 0.127555 -0.392559 0 0.133255 -0.355823 0 
0.0998974 -0.389218 0 0.197219 -0.370943 0 0.158308 -0.396925 0 
0.167156 -0.365993 0 0.18204 -0.387929 0 0.213718 -0.353459 0 
0.23069 -0.372536 0 0.214098 -0.389633 0 0.273018 -0.397462 0 
0.292924 -0.385096 0 0.262959 -0.361929 0 0.285938 -0.363244 0 
0.254952 -0.383155 0 0.315827 -0.376426 0 0.334874 -0.360803 0 
0.335454 -0.389754 0 0.308525 -0.351537 0 0.373159 -0.352094 0 
0.386833 -0.392731 0 0.36118 -0.391488 0 0.388843 -0.370236 0 
0.357987 -0.369507 0 0.436627 -0.363482 0 0.445606 -0.385651 0 
0.406962 -0.351755 0 0.415553 -0.375595 0 0.413134 -0.397537 0 
0.489062 -0.365289 0 0.460792 -0.357096 0 0.468397 -0.381431 0 
0.489511 -0.392108 0 0.5375 -0.3625 0 0.5125 -0.3875 0 
0.5125 -0.3625 0 0.5375 -0.3875 0 -0.5125 -0.3125 0 
-0.5125 -0.3375 0 -0.5375 -0.3125 0 -0.5375 -0.3375 0 
-0.490869 -0.347832 0 -0.46899 -0.302712 0 -0.489856 -0.316903 0 
-0.454823 -0.349462 0 -0.470921 -0.332281 0 -0.418062 -0.315441 0 
-0.449042 -0.317786 0 -0.400495 -0.331628 0 -0.432557 -0.33603 0 
-0.384581 -0.31122 0 -0.378179 -0.34177 0 -0.362348 -0.322601 0 
-0.343319 -0.306639 0 -0.313984 -0.302618 0 -0.317943 -0.348619 0 
-0.325388 -0.323824 0 -0.345656 -0.339613 0 -0.279716 -0.318588 0 
-0.299701 -0.329101 0 -0.257032 -0.325957 0 -0.267261 -0.348241 0 
-0.2008 -0.344784 0 -0.233784 -0.33048 0 -0.236245 -0.303216 0 
-0.212283 -0.322613 0 -0.168132 -0.301592 0 -0.190441 -0.311833 0 
-0.153299 -0.32155 0 -0.177772 -0.33218 0 -0.160787 -0.348576 0 
-0.137507 -0.30158 0 -0.117059 -0.316468 0 -0.133122 -0.334724 0 
-0.103757 -0.337583 0 -0.072477 -0.338124 0 -0.0596419 -0.31365 0 
-0.0863668 -0.319013 0 -0.00283175 -0.306053 0 -0.0357893 -0.319885 0 
-0.0173618 -0.333215 0 -0.04837 -0.341289 0 0.0229519 -0.300365 0 
0.00631842 -0.328248 0 0.0295941 -0.324916 0 0.0672438 -0.312318 0 
0.0879884 -0.326003 0 0.0712128 -0.34457 0 0.0509531 -0.330581 0 
0.144075 -0.32107 0 0.101426 -0.346583 0 0.111518 -0.312594 0 
0.122194 -0.334081 0 0.19258 -0.309228 0 0.173509 -0.326322 0 
0.183856 -0.348432 0 0.163029 -0.304121 0 0.154377 -0.343574 0 
0.229618 -0.329083 0 0.203129 -0.331779 0 0.241417 -0.349862 0 
0.218577 -0.307499 0 0.248786 -0.311765 0 0.282923 -0.33857 0 
0.273174 -0.306584 0 0.260691 -0.332889 0 0.294285 -0.318481 0 
0.316482 -0.330779 0 0.343413 -0.340949 0 0.335077 -0.316777 0 
0.307364 -0.300088 0 0.364163 -0.329416 0 0.391584 -0.333768 0 
0.358377 -0.305343 0 0.384096 -0.309948 0 0.412471 -0.321117 0 
0.429954 -0.341068 0 0.438446 -0.31779 0 0.465277 -0.31155 0 
0.489394 -0.321806 0 0.457837 -0.33451 0 0.484329 -0.343295 0 
0.5375 -0.3375 0 0.5375 -0.3125 0 0.5125 -0.3375 0 
0.5125 -0.3125 0 -0.5375 -0.2625 0 -0.5125 -0.2875 0 
-0.5375 -0.2875 0 -0.5125 -0.2625 0 -0.454377 -0.283215 0 
-0.490073 -0.287656 0 -0.458504 -0.249994 0 -0.491389 -0.25202 0 
-0.475346 -0.269698 0 -0.41809 -0.276222 0 -0.403491 -0.295676 0 
-0.438869 -0.263985 0 -0.434427 -0.296796 0 -0.366698 -0.293547 0 
-0.363138 -0.267742 0 -0.397788 -0.256758 0 -0.386932 -0.277843 0 
-0.319559 -0.250859 0 -0.340124 -0.283845 0 -0.317521 -0.277439 0 
-0.342034 -0.257118 0 -0.295836 -0.269621 0 -0.27904 -0.251119 0 
-0.272357 -0.280506 0 -0.291549 -0.29719 0 -0.256143 -0.261422 0 
-0.259515 -0.299194 0 -0.21361 -0.295633 0 -0.214287 -0.270642 0 
-0.239187 -0.277474 0 -0.229157 -0.250522 0 -0.174664 -0.268637 0 
-0.190301 -0.285159 0 -0.153563 -0.282322 0 -0.150825 -0.254291 0 
-0.196944 -0.254646 0 -0.108401 -0.255919 0 -0.118695 -0.285704 0 
-0.13152 -0.266476 0 -0.0697726 -0.265858 0 -0.0924865 -0.272912 0 
-0.0724376 -0.292429 0 -0.0980569 -0.298297 0 -0.00518612 -0.255273 0 
-0.0459748 -0.263754 0 -0.025251 -0.298345 0 -0.0479476 -0.288966 0 
-0.0222879 -0.272882 0 0.0468045 -0.273797 0 0.0234527 -0.273267 0 
0.046311 -0.299213 0 0.00167202 -0.281214 0 0.093211 -0.298916 0 
0.0940142 -0.255065 0 0.0719137 -0.28692 0 0.0717429 -0.264419 0 
0.125107 -0.277391 0 0.102093 -0.278169 0 0.131181 -0.299596 0 
0.140418 -0.25709 0 0.152708 -0.283772 0 0.183128 -0.287239 0 
0.18909 -0.263948 0 0.164443 -0.263334 0 0.21331 -0.260663 0 
0.210441 -0.285049 0 0.238029 -0.289981 0 0.236413 -0.266163 0 
0.287831 -0.25983 0 0.261202 -0.260424 0 0.288395 -0.283609 0 
0.263043 -0.283978 0 0.330646 -0.29343 0 0.349648 -0.254447 0 
[...]
POINT_DATA 2798
SCALARS id float
LOOKUP_TABLE default
2620 2621 2600 2601 2640 2641 2642 2643 2647 
2646 2644 2645 2650 2651 2649 2648 2653 2652 
2654 2655 2659 2657 2656 2658 2662 2661 2663 
2660 2666 2664 2665 2667 2669 2671 2668 2670 
2673 2674 2672 2675 2677 2680 2676 2679 2681 
2678 2684 2685 2683 2682 2688 2689 2686 2687 
2692 2693 2691 2690 2694 2696 2695 2697 2700 
2701 2699 2698 2704 2702 2705 2703 2708 2709 
2706 2707 2713 2711 2710 2712 2717 2715 2716 
2714 2718 2721 2720 2719 2743 2742 2723 2722 
2602 2622 2603 2623 1660 1678 1696 1697 1786 
1732 1823 1714 1858 1840 1804 1913 1967 1912 
1949 1894 1876 1930 2111 1948 2093 1984 2129 
2147 2020 2183 2056 2074 2165 2038 2092 2110 
2201 2219 2237 2128 2146 2218 2291 2164 2310 
2182 2329 2328 2254 2236 2330 2200 2272 2347 
2331 2290 2350 2308 2309 2365 2349 2327 2326 
2366 2348 2346 2337 2364 2363 2368 2345 2362 
2383 2370 2344 2380 2371 2386 2382 2390 2389 
2381 280 2367 2384 2388 2385 2387 2744 2745 
2724 2725 2625 2605 2624 2604 1715 1750 1661 
1805 1768 1842 1841 1877 1859 1822 1914 2003 
1966 1986 1931 1985 2112 2057 2002 2130 2148 
2167 2131 2184 2203 2202 2166 2238 2239 2257 
2220 2274 2256 2275 2255 2312 2315 2311 2273 
2283 2332 2313 2300 2316 2333 2336 2317 2353 
2335 2352 2248 2334 2284 2351 2318 2354 60 
1461 2369 2372 340 1460 1122 1620 0 1281 
2267 1201 1420 2231 2090 2213 1101 1183 2373 
1221 1341 2391 320 1321 2301 2355 2747 2726 
2727 2746 2627 2626 2607 2606 1679 1716 1662 
1787 1733 1843 1806 1860 1824 1896 1895 1932 
2005 2040 2004 2022 1950 2039 2021 2094 2075 
2185 2149 2113 2186 2223 2204 2240 2222 2221 
2241 2259 2258 2276 2293 2295 2294 2299 2296 
2314 2292 2265 2282 2247 2018 21 2230 2125 
1362 2266 1441 2142 1561 1481 2195 1521 1875 
1161 100 20 1301 1928 1181 1820 1541 1261 
1540 1141 1241 1580 1520 1400 1040 1766 1440 
1121 1729 1873 1767 1001 1081 2748 2749 2728 
2729 2609 2628 2608 2629 1769 1698 1751 1680 
1734 1862 1861 1788 1825 1933 1968 1879 1878 
2024 2023 2041 1987 2059 2078 2077 2058 2096 
2076 2150 2132 2095 2114 2206 2168 2224 2207 
2169 2225 2242 2208 2279 2260 2278 2277 2263 
2280 2298 2297 2246 2229 2264 2212 2281 1522 
1893 1929 2072 1838 1581 120 1911 140 1361 
180 1946 1 40 1600 1731 1837 1963 160 
1910 1802 762 900 1942 1892 1853 1749 1120 
1784 1909 542 1713 1560 1300 1712 1818 1891 
1819 2751 2731 2730 2750 2611 2610 2631 2630 
1752 1770 1717 1807 1844 1880 1881 1951 1915 
1897 1934 1952 2042 1969 2061 2060 2080 2079 
2098 2115 2097 2099 2187 2133 2205 2116 2188 
2189 2190 2191 2261 2243 2156 2174 2262 2244 
2245 2226 2209 2194 2227 2228 2211 2054 2159 
2177 2124 2193 2036 1821 2035 2053 2176 2107 
1803 1839 2070 1964 1998 1982 1857 1980 1981 
1926 462 2016 1979 2034 1693 1874 1962 820 
1856 1785 2325 1783 1997 1180 1675 1080 1220 
2145 2752 2732 2753 2733 2632 2612 2613 2633 
1735 1663 1789 1771 1916 1826 1935 1898 1899 
1970 1989 1953 1971 2025 1988 2006 2044 2045 
2043 2062 2046 2081 2028 2063 2117 2047 2064 
2029 2134 2170 2172 2151 2155 2100 2173 2152 
2140 2136 2171 2139 2123 2153 2192 2154 2210 
2175 2158 2157 2089 2052 2141 2071 2121 2087 
2068 2122 2103 2106 2085 2105 2088 2015 2050 
2000 2017 2102 2051 2049 2033 1908 1890 2069 
2032 80 1709 1999 2288 1927 1945 1676 2735 
2755 2734 2754 2614 2634 2635 2615 1753 1790 
1699 1882 1918 1863 1917 1900 1955 1936 1954 
1972 2007 1990 2008 2026 2027 2010 1974 1991 
2009 1924 1992 1993 1905 1977 1975 2082 1958 
1959 1817 2135 1835 2065 2030 1941 2011 1852 
2012 1816 2083 2120 2101 2137 2048 2138 2119 
1925 1851 1705 1777 1960 1689 1780 1742 1797 
2118 2066 1723 2013 2104 1944 2014 1673 2084 
1708 1906 1100 1745 1978 1746 2086 1961 2031 
2067 1140 2306 1889 1710 2736 2737 2756 2757 
2637 2616 2636 2617 1808 1845 1718 1681 1864 
1846 1901 1919 1883 1902 1920 1737 1809 1937 
1938 1885 1829 1973 1884 1939 1956 1903 1867 
1868 1957 1976 1792 1848 1831 1940 1921 1667 
1849 1922 1811 1887 1923 1904 1871 1870 1830 
1813 1869 1758 1781 1794 1711 1793 1834 1994 
1722 1850 1995 1886 1798 1776 1795 1775 1727 
1670 1779 2215 2250 1815 1142 1740 2320 404 
2234 1061 2232 2357 1282 2303 1674 1814 1799 
1283 1762 2323 1888 1695 1996 2758 2759 2738 
2739 2564 2567 2566 2565 2569 2568 2571 2570 
2574 2572 2575 2573 2579 2578 2577 2576 2582 
2580 2583 2581 2584 2587 2585 2586 2590 2591 
2588 2589 2592 2594 2595 2593 2599 2598 2596 
2597 2618 2619 2638 2639 1700 1664 1772 1719 
1736 1665 1701 1827 1682 1320 482 1683 1754 
1828 1865 1666 1866 1847 220 1791 1738 1810 
1720 1102 1755 1601 1773 1062 1684 1702 1692 
263 1854 2160 541 1401 1669 2285 1703 1021 
861 1677 1739 1262 1812 260 2319 1685 1222 
2338 1774 1721 1832 1741 2374 980 2392 682 
920 641 1757 2356 124 264 1686 1756 1704 
843 901 321 240 2251 442 1000 2143 783 
463 742 1760 681 2214 2377 940 1691 2761 
2741 2740 2760 2763 2764 2762 2765 2766 2768 
2767 2769 2771 2770 2773 2772 2775 2774 2777 
2776 2778 2780 2779 2781 2784 2782 2785 2783 
2788 2787 2789 2786 2791 2790 2793 2792 2797 
2794 2795 2796 1688 1672 1542 1761 1044 2019 
1223 2287 2199 2341 1382 181 1020 761 806 
163 983 2037 2270 1480 2339 1855 2360 2378 
2307 1690 520 2304 2180 2321 1500 780 1730 
2055 341 1836 1765 1263 162 1380 720 680 
1801 1105 1747 1800 2289 421 2217 2109 1200 
1041 2342 1564 460 802 1242 1706 223 2091 
1748 141 881 1260 862 941 1872 921 822 
1907 561 261 1782 22 1385 1764 420 281 
500 860 981 2269 1668 1643 620 363 1202 
1694 701 1340 1240 2127 560 540 402 101 
2181 700 2178 423 362 381 1605 600 501 
521 123 302 84 241 4 721 102 1525 
2249 262 401 801 382 343 361 1726 403 
1543 1671 2361 2397 1182 1523 883 2376 2359 
1778 1744 1725 1943 1947 1728 903 800 1759 
1022 1043 2375 1763 1184 2396 2252 601 1707 
2394 2343 1582 2271 803 1743 2358 41 1303 
461 640 2179 823 602 923 1162 2216 622 
1123 201 643 744 763 366 2305 1063 444 
503 161 1204 642 963 1185 2161 884 2235 
902 1042 625 2253 2393 623 982 2163 840 
844 2395 464 1163 2233 764 1060 1422 1144 
2108 1544 786 1483 904 1145 984 605 1302 
2197 1004 845 1983 1124 1045 1143 964 1383 
200 1064 1602 1264 1641 660 1363 1501 360 
81 1224 480 2268 2324 1344 2340 143 61 
42 1463 1443 83 1404 1403 1066 1563 1364 
3 221 1087 182 1423 1424 1360 481 104 
1280 43 2379 2322 2286 1160 1304 2001 122 
121 422 441 400 1604 1227 380 63 1965 
440 1325 1585 103 62 1603 740 1286 1485 
1504 621 1565 105 722 6 224 1505 282 
301 1796 2126 242 703 2198 760 962 323 
1502 781 1833 661 1023 304 1342 960 1402 
1621 1322 1687 922 804 961 1421 1724 841 
2302 1243 1003 741 305 322 325 165 86 
1082 225 583 1203 702 942 285 821 563 
683 662 1002 147 365 483 502 581 405 
562 286 543 864 1083 1103 664 385 544 
863 943 663 1640 684 523 603 743 307 
825 882 2196 624 704 824 566 842 665 
300 724 604 766 705 347 626 584 546 
526 785 1024 506 805 646 784 745 685 
1106 725 765 746 687 787 924 905 1104 
1482 925 1086 1065 985 1164 1562 945 1025 
887 1225 1442 2162 1244 1125 907 965 1085 
868 1343 1503 1384 849 986 1186 1345 1462 
1366 967 1323 1006 23 1067 1365 1005 987 
1265 1207 1524 1088 1007 1622 1644 1642 82 
1346 2144 1187 1266 1128 2 1623 1425 1405 
1584 142 144 1406 1464 1267 44 283 580 
85 1583 1466 222 5 1484 25 27 383 
26 1645 203 184 24 782 880 364 723 
1381 582 245 342 522 344 324 443 243 
284 1526 1468 1527 204 166 1647 46 66 
65 186 1627 202 303 1607 205 7 164 
67 185 146 47 125 266 206 126 345 
424 187 226 326 265 384 246 227 386 
306 208 287 346 228 247 189 229 484 
209 149 267 565 327 485 564 644 268 
504 288 524 645 425 585 505 446 426 
486 525 545 465 487 466 547 507 686 
467 586 527 666 885 606 826 944 865 
866 886 807 1084 788 867 846 906 767 
827 727 668 848 707 728 847 688 1046 
748 1047 888 768 966 869 926 1165 1126 
1205 946 947 908 1026 927 948 870 890 
909 1027 928 1226 1284 1206 1245 2073 1285 
1127 1324 1246 1305 1109 1545 1069 1049 1208 
1167 1247 1228 1465 1148 1444 1209 1387 1426 
1367 1624 1486 1547 45 1368 1446 1445 1546 
1625 64 1487 244 1567 1586 1428 1506 1448 
1566 183 1408 1409 1349 1369 1488 1606 1646 
1507 1508 1548 1626 1587 1528 1509 1568 1529 
1588 1549 1608 1569 1589 1648 87 1628 145 
8 106 28 167 1649 48 88 127 49 
207 148 29 68 69 107 168 108 128 
188 89 109 129 248 150 169 170 190 
249 289 406 210 269 230 328 308 250 
309 329 348 407 445 387 367 427 368 
447 408 468 488 706 567 448 627 607 
469 587 568 647 726 588 608 747 667 
529 549 628 589 569 590 648 629 689 
708 709 670 669 649 808 671 690 729 
829 749 769 850 828 889 789 809 810 
851 790 830 910 968 891 1107 1008 1068 
1166 988 1146 1108 1028 1089 989 1048 1010 
1009 1029 1090 1147 1030 1050 1188 1110 1129 
1070 1149 1306 1130 1229 1347 1168 1111 1386 
1307 1248 1287 1326 1268 1327 1407 1328 1427 
1348 1288 1467 1447 1309 1388 1330 1291 1311 
1310 1329 1350 1370 1429 1449 1331 1469 1410 
1389 1489 1470 1430 1450 1451 1510 1490 1471 
1491 1511 1530 1531 1550 1609 1629 1590 1571 
1570 1611 1610 1591 1630 1632 1650 1631 9 
10 30 31 1651 50 71 51 70 90 
91 130 110 133 111 131 151 132 191 
171 153 152 172 173 212 211 192 231 
290 251 310 232 270 369 291 349 271 
389 388 350 409 330 370 390 449 428 
429 430 508 450 410 548 509 489 470 
528 490 511 491 510 530 550 570 512 
551 610 571 609 630 611 591 650 631 
672 651 652 730 691 711 710 692 731 
750 751 771 770 791 811 792 831 892 
852 871 911 929 930 949 912 931 970 
969 951 971 950 990 991 992 1031 1012 
1011 1091 1071 1051 1093 1112 1092 1131 1189 
1150 1169 1230 1190 1170 1210 1211 1269 1308 
1249 1289 1290 1270 1250 1272 1293 1271 1292 
1313 1332 1312 1351 1371 1352 1390 1372 1431 
1391 1411 1412 1432 1473 1452 1472 1453 1512 
1513 1493 1492 1553 1551 1552 1532 1533 1593 
1592 1573 1572 1612 1633 1613 13 11 12 
1652 1653 52 33 53 32 72 93 92 
73 112 134 155 113 154 174 194 175 
193 254 213 214 234 252 253 233 273 
272 292 293 332 331 311 312 352 351 
371 372 392 411 391 412 431 432 451 
471 452 492 493 473 472 532 531 513 
573 553 572 552 612 593 592 613 633 
653 673 674 632 693 712 713 733 732 
753 752 772 793 773 813 832 833 853 
854 812 874 873 894 872 893 914 913 
953 952 933 932 973 972 1013 1034 993 
1054 1053 1032 1052 1033 1113 1073 1072 1074 
1134 1151 1132 1114 1094 1133 1152 1171 1191 
1192 1233 1212 1231 1213 1232 1252 1251 1375 
1334 1395 1314 1415 1354 1333 1374 1394 1373 
1435 1353 1414 1393 1434 1475 1433 1413 1392 
1495 1454 1474 1515 1494 1555 1514 1535 1554 
1595 1575 1534 1615 1635 1574 1594 1614 1655 
1634 15 35 1654 55 14 54 95 75 
34 115 74 94 176 156 215 114 276 
135 275 296 196 195 295 235 315 255 
314 274 354 294 374 333 395 313 353 
394 415 414 435 373 393 454 434 413 
455 475 453 495 433 515 534 494 474 
514 533 555 575 574 615 554 595 635 
594 614 655 675 715 654 695 634 694 
755 714 735 775 734 795 754 774 815 
835 794 834 935 896 814 855 916 895 
975 955 875 1015 934 915 995 1035 974 
1055 954 1095 1014 994 1075 1155 1175 1136 
1216 1195 1154 1115 1194 1135 1214 1173 1174 
1235 1153 1193 1172 1275 1234 1295 1315 1254 
1274 1335 1273 1294 1253 1355 77 1496 1476 
97 117 1516 137 1536 1455 157 177 1556 
197 1576 217 277 1636 237 1596 1616 317 
297 1656 16 357 337 36 56 76 417 
96 397 437 116 136 457 376 257 216 
477 236 497 517 256 336 537 377 557 
356 597 577 316 617 637 355 335 334 
657 396 677 375 697 436 717 416 757 
476 737 456 496 797 777 516 837 817 
536 877 535 576 556 857 897 616 596 
917 957 636 937 656 1017 696 676 977 
997 1057 736 716 1037 1077 776 1097 756 
1117 816 1137 796 876 1197 1217 1177 856 
836 1257 956 1237 936 1277 1297 976 996 
1317 1036 1337 1056 1016 1377 1096 1076 1357 
1116 1157 1417 1397 1477 1176 1457 1156 1437 
1215 1497 1196 1517 1236 1537 1256 1557 1577 
1276 1296 1336 1617 1316 1597 1255 1356 1657 
1637 1376 17 1396 1416 37 57 1436 1456 
818 659 838 679 878 699 719 858 759 
739 898 918 958 799 938 779 819 978 
998 839 879 899 1038 1018 859 1078 919 
939 1058 959 1118 979 1098 1019 1138 999 
1158 1198 1059 1039 1178 1218 1238 1099 1079 
1139 1119 1278 1258 1159 1298 1199 1318 1179 
1358 1338 1219 1378 1239 1418 1259 1398 1279 
1458 1339 1319 1438 1299 1379 1359 1498 1478 
1399 1558 1538 1419 1518 1439 1598 1578 1459 
1618 1499 1479 1638 18 1539 1658 1519 1599 
1579 78 58 1559 38 98 1639 1619 118 
138 1659 158 19 178 198 39 59 218 
238 99 258 79 298 278 119 139 338 
179 159 318 358 199 378 219 239 398 
418 458 279 438 259 299 478 319 498 
518 359 339 538 379 578 558 399 419 
618 598 439 658 479 638 459 678 499 
519 698 718 559 539 599 758 738 579 
619 798 639 778 2401 2399 2400 2398 2403 
2402 2404 2405 2407 2406 2409 2408 2410 2412 
2413 2411 2414 2417 2416 2415 2419 2418 2421 
2420 2423 2426 2425 2427 2424 2422 2430 2429 
2428 2431 2433 2432 2435 2434 2438 2439 2437 
2436 2440 2441 2442 2443 2447 2446 2444 2445 
2451 2450 2449 2448 2454 2455 2453 2452 2456 
2457 2459 2458 2461 2462 2460 2463 2464 2465 
2466 2467 2470 2469 2468 2471 2474 2475 2472 
2473 2481 2479 2480 2477 2478 2476 2482 2483 
2484 2485 2488 2489 2487 2486 2491 2490 2493 
2492 2497 2496 2495 2494 2501 2500 2498 2499 
2504 2503 2502 2505 2507 2506 2508 2509 2511 
2510 2513 2512 2516 2515 2517 2514 2519 2520 
2518 2521 2523 2524 2525 2522 2529 2528 2526 
2527 2531 2530 2533 2532 2534 2535 2536 2537 
2538 2539 2541 2540 2543 2542 2547 2546 2544 
2545 2548 2549 2550 2551 2553 2554 2555 2552 
2558 2556 2557 2559 2560 2561 2562 2563 
FIELD FieldData 7
r 3 2798 float
-0.5125 -0.4875 0 -0.5125 -0.4625 0 -0.5375 -0.4875 0 
-0.5375 -0.4625 0 -0.487805 -0.4875 0 -0.487805 -0.4625 0 
-0.463415 -0.4875 0 -0.463415 -0.4625 0 -0.414634 -0.4625 0 
-0.414634 -0.4875 0 -0.439024 -0.4875 0 -0.439024 -0.4625 0 
-0.365854 -0.4875 0 -0.365854 -0.4625 0 -0.390244 -0.4625 0 
-0.390244 -0.4875 0 -0.341463 -0.4625 0 -0.341463 -0.4875 0 
-0.317073 -0.4875 0 -0.317073 -0.4625 0 -0.268293 -0.4625 0 
-0.292683 -0.4625 0 -0.292683 -0.4875 0 -0.268293 -0.4875 0 
-0.219512 -0.4875 0 -0.243902 -0.4625 0 -0.219512 -0.4625 0 
-0.243902 -0.4875 0 -0.170732 -0.4875 0 -0.195122 -0.4875 0 
-0.195122 -0.4625 0 -0.170732 -0.4625 0 -0.146341 -0.4625 0 
-0.121951 -0.4625 0 -0.146341 -0.4875 0 -0.121951 -0.4875 0 
-0.097561 -0.4625 0 -0.0731707 -0.4875 0 -0.097561 -0.4875 0 
-0.0731707 -0.4625 0 -0.0487805 -0.4625 0 -1.86265e-08 -0.4875 0 
-0.0487805 -0.4875 0 -0.0243903 -0.4625 0 -1.86265e-08 -0.4625 0 
-0.0243903 -0.4875 0 0.0487805 -0.4875 0 0.0487805 -0.4625 0 
0.0243902 -0.4625 0 0.0243902 -0.4875 0 0.097561 -0.4875 0 
0.097561 -0.4625 0 0.0731707 -0.4875 0 0.0731707 -0.4625 0 
0.146341 -0.4875 0 0.146341 -0.4625 0 0.121951 -0.4625 0 
0.121951 -0.4875 0 0.170732 -0.4875 0 0.195122 -0.4875 0 
0.170732 -0.4625 0 0.195122 -0.4625 0 0.243902 -0.4875 0 
0.243902 -0.4625 0 0.219512 -0.4625 0 0.219512 -0.4875 0 
0.292683 -0.4875 0 0.268293 -0.4875 0 0.292683 -0.4625 0 
0.268293 -0.4625 0 0.341463 -0.4875 0 0.341463 -0.4625 0 
0.317073 -0.4875 0 0.317073 -0.4625 0 0.390244 -0.4625 0 
0.365854 -0.4625 0 0.365854 -0.4875 0 0.390244 -0.4875 0 
0.439024 -0.4625 0 0.414634 -0.4625 0 0.439024 -0.4875 0 
0.414634 -0.4875 0 0.463415 -0.4875 0 0.487805 -0.4625 0 
0.487805 -0.4875 0 0.463415 -0.4625 0 0.5375 -0.4625 0 
0.5375 -0.4875 0 0.5125 -0.4625 0 0.5125 -0.4875 0 
-0.5375 -0.4375 0 -0.5125 -0.4375 0 -0.5375 -0.4125 0 
-0.5125 -0.4125 0 -0.488094 -0.436178 0 -0.465347 -0.438069 0 
-0.467924 -0.405008 0 -0.48868 -0.410931 0 -0.410689 -0.437679 0 
-0.435698 -0.438643 0 -0.419601 -0.413911 0 -0.4496 -0.420514 0 
-0.36484 -0.437056 0 -0.396736 -0.410216 0 -0.387421 -0.436119 0 
-0.373254 -0.410064 0 -0.325839 -0.412315 0 -0.300616 -0.423781 0 
-0.349957 -0.411922 0 -0.316965 -0.439311 0 -0.341172 -0.436753 0 
-0.283871 -0.43989 0 -0.257573 -0.403455 0 -0.262429 -0.4324 0 
-0.278196 -0.408934 0 -0.24132 -0.43798 0 -0.236121 -0.412048 0 
-0.214031 -0.407901 0 -0.217764 -0.435506 0 -0.155619 -0.410915 0 
-0.173393 -0.432352 0 -0.152237 -0.438202 0 -0.191963 -0.412047 0 
-0.195109 -0.438418 0 -0.128648 -0.436461 0 -0.106362 -0.436145 0 
-0.132778 -0.411037 0 -0.109848 -0.408225 0 -0.087833 -0.410808 0 
-0.0837283 -0.436949 0 -0.060872 -0.436945 0 -0.0636384 -0.410999 0 
-0.0409278 -0.409005 0 -0.0385182 -0.436287 0 -0.0180246 -0.410089 0 
-0.016402 -0.436676 0 0.00442998 -0.408659 0 0.0262339 -0.407236 0 
0.048789 -0.437498 0 0.0268384 -0.434958 0 0.0491662 -0.411236 0 
0.00566537 -0.436489 0 0.071455 -0.436121 0 0.0973545 -0.411775 0 
0.0728092 -0.409916 0 0.0938652 -0.436917 0 0.123771 -0.413782 0 
0.1421 -0.438982 0 0.117183 -0.437103 0 0.180152 -0.413176 0 
0.150468 -0.417101 0 0.168308 -0.437601 0 0.19201 -0.436295 0 
0.20379 -0.409726 0 0.24498 -0.439247 0 0.215374 -0.438847 0 
0.239167 -0.400786 0 0.228036 -0.420103 0 0.288651 -0.417532 0 
0.259221 -0.418606 0 0.2731 -0.439175 0 0.322835 -0.436717 0 
0.329408 -0.413476 0 0.308589 -0.405192 0 0.300239 -0.437794 0 
0.347292 -0.438118 0 0.355234 -0.414069 0 0.371852 -0.43732 0 
0.396769 -0.438665 0 0.382672 -0.414717 0 0.443134 -0.427828 0 
0.425016 -0.440716 0 0.437073 -0.405633 0 0.410925 -0.419779 0 
0.487264 -0.43871 0 0.464739 -0.408851 0 0.461907 -0.438425 0 
0.486927 -0.416579 0 0.5375 -0.4375 0 0.5375 -0.4125 0 
0.5125 -0.4375 0 0.5125 -0.4125 0 -0.5125 -0.3625 0 
-0.5375 -0.3625 0 -0.5125 -0.3875 0 -0.5375 -0.3875 0 
-0.475658 -0.365623 0 -0.45852 -0.383555 0 -0.489794 -0.383105 0 
-0.439901 -0.367165 0 -0.436619 -0.398197 0 -0.416413 -0.353389 0 
-0.419585 -0.381108 0 -0.373367 -0.383252 0 -0.393693 -0.361262 0 
-0.397582 -0.385908 0 -0.363624 -0.360566 0 -0.306568 -0.370149 0 
-0.301654 -0.398599 0 -0.337838 -0.363672 0 -0.349404 -0.387095 0 
-0.324759 -0.38686 0 -0.262603 -0.374911 0 -0.283457 -0.380682 0 
-0.288736 -0.351774 0 -0.240119 -0.383455 0 -0.217517 -0.381383 0 
-0.21989 -0.356629 0 -0.243121 -0.355238 0 -0.173876 -0.397518 0 
-0.185134 -0.361819 0 -0.163537 -0.374935 0 -0.195321 -0.382443 0 
-0.119103 -0.383471 0 -0.138572 -0.358556 0 -0.11408 -0.358821 0 
-0.142459 -0.385191 0 -0.0624074 -0.364661 0 -0.094932 -0.382469 0 
-0.0871026 -0.358609 0 -0.0716884 -0.387548 0 -0.0341855 -0.359279 0 
-0.0107484 -0.357449 0 -0.0206721 -0.384072 0 -0.0451692 -0.383725 0 
0.0342913 -0.352897 0 0.0250072 -0.379465 0 0.00262866 -0.381763 0 
0.0121659 -0.353462 0 0.0474973 -0.385656 0 0.0727605 -0.385679 0 
0.0852583 -0.365752 0 0.0553881 -0.362535 0 0.145471 -0.376849 0 
0.113521 -0.369657 0 0.127555 -0.392559 0 0.133255 -0.355823 0 
0.0998974 -0.389218 0 0.197219 -0.370943 0 0.158308 -0.396925 0 
0.167156 -0.365993 0 0.18204 -0.387929 0 0.213718 -0.353459 0 
0.23069 -0.372536 0 0.214098 -0.389633 0 0.273018 -0.397462 0 
0.292924 -0.385096 0 0.262959 -0.361929 0 0.285938 -0.363244 0 
0.254952 -0.383155 0 0.315827 -0.376426 0 0.334874 -0.360803 0 
0.335454 -0.389754 0 0.308525 -0.351537 0 0.373159 -0.352094 0 
0.386833 -0.392731 0 0.36118 -0.391488 0 0.388843 -0.370236 0 
0.357987 -0.369507 0 0.436627 -0.363482 0 0.445606 -0.385651 0 
0.406962 -0.351755 0 0.415553 -0.375595 0 0.413134 -0.397537 0 
0.489062 -0.365289 0 0.460792 -0.357096 0 0.468397 -0.381431 0 
0.489511 -0.392108 0 0.5375 -0.3625 0 0.5125 -0.3875 0 
0.5125 -0.3625 0 0.5375 -0.3875 0 -0.5125 -0.3125 0 
-0.5125 -0.3375 0 -0.5375 -0.3125 0 -0.5375 -0.3375 0 
-0.490869 -0.347832 0 -0.46899 -0.302712 0 -0.489856 -0.316903 0 
-0.454823 -0.349462 0 -0.470921 -0.332281 0 -0.418062 -0.315441 0 
-0.449042 -0.317786 0 -0.400495 -0.331628 0 -0.432557 -0.33603 0 
-0.384581 -0.31122 0 -0.378179 -0.34177 0 -0.362348 -0.322601 0 
-0.343319 -0.306639 0 -0.313984 -0.302618 0 -0.317943 -0.348619 0 
-0.325388 -0.323824 0 -0.345656 -0.339613 0 -0.279716 -0.318588 0 
-0.299701 -0.329101 0 -0.257032 -0.325957 0 -0.267261 -0.348241 0 
-0.2008 -0.344784 0 -0.233784 -0.33048 0 -0.236245 -0.303216 0 
-0.212283 -0.322613 0 -0.168132 -0.301592 0 -0.190441 -0.311833 0 
-0.153299 -0.32155 0 -0.177772 -0.33218 0 -0.160787 -0.348576 0 
-0.137507 -0.30158 0 -0.117059 -0.316468 0 -0.133122 -0.334724 0 
-0.103757 -0.337583 0 -0.072477 -0.338124 0 -0.0596419 -0.31365 0 
-0.0863668 -0.319013 0 -0.00283175 -0.306053 0 -0.0357893 -0.319885 0 
-0.0173618 -0.333215 0 -0.04837 -0.341289 0 0.0229519 -0.300365 0 