# vtk DataFile Version 4.0
vtk output
ASCII
DATASET POLYDATA
FIELD FieldData 4
domain 1 3 string
domain_min:-20|-15
domain_max:20|15
cell_size:0.05

variables 1 2 string
dt:0.000372678
T:1.35835

constants 1 10 string
xsize:2
ysize:1
csize:0.05
dx:0.0238095
h:0.025
rho0:1000
mass:0.566894
g:1|0
c:13.4164
CFL:0.2

functions 1 8 string
time:T=(T+dt)
continuity:rho_dot=((-(rho*sph_D00(v,mass,rho,Wp52220)))+(((0.1*c)*h)*sph_L00(rho,mass,rho,Wp52220)))
irho:rho=(rho+int1((rho_dot,dt))
EOS:p=(((c^2)*(rho-rho0))+10000)
euler:a=if((gid,(0*v),(((-((1/rho)*sph_G11(p,mass,rho,Wp52220)))+(0.01*sph_L00(v,mass,rho,Wp52220)))+g))
vel:v=(v+int1((a,dt))
pos:r=(r+int1((v,dt))
new_dt:dt=(CFL*min((sqrt(((h/fmax(magnitude((a)))),(h/c)))

POINTS 2798 float
-0.5125 -0.4625 0 -0.5375 -0.4875 0 -0.5375 -0.4625 0 
-0.5125 -0.4875 0 -0.487805 -0.4875 0 -0.463415 -0.4875 0 
-0.463415 -0.4625 0 -0.487805 -0.4625 0 -0.439024 -0.4875 0 
-0.414634 -0.4875 0 -0.414634 -0.4625 0 -0.439024 -0.4625 0 
-0.365854 -0.4625 0 -0.365854 -0.4875 0 -0.390244 -0.4625 0 
-0.390244 -0.4875 0 -0.341463 -0.4875 0 -0.317073 -0.4625 0 
-0.341463 -0.4625 0 -0.317073 -0.4875 0 -0.292683 -0.4875 0 
-0.268293 -0.4875 0 -0.292683 -0.4625 0 -0.268293 -0.4625 0 
-0.219512 -0.4875 0 -0.219512 -0.4625 0 -0.243902 -0.4875 0 
-0.243902 -0.4625 0 -0.170732 -0.4875 0 -0.170732 -0.4625 0 
-0.195122 -0.4625 0 -0.195122 -0.4875 0 -0.146341 -0.4875 0 
-0.146341 -0.4625 0 -0.121951 -0.4875 0 -0.121951 -0.4625 0 
-0.0731707 -0.4625 0 -0.097561 -0.4875 0 -0.0731707 -0.4875 0 
-0.097561 -0.4625 0 -0.0487805 -0.4875 0 -1.86265e-08 -0.4625 0 
-0.0243903 -0.4875 0 -0.0243903 -0.4625 0 -1.86265e-08 -0.4875 0 
-0.0487805 -0.4625 0 0.0243902 -0.4875 0 0.0243902 -0.4625 0 
0.0487805 -0.4625 0 0.0487805 -0.4875 0 0.0731707 -0.4625 0 
0.097561 -0.4625 0 0.0731707 -0.4875 0 0.097561 -0.4875 0 
0.121951 -0.4625 0 0.121951 -0.4875 0 0.146341 -0.4875 0 
0.146341 -0.4625 0 0.195122 -0.4625 0 0.170732 -0.4625 0 
0.170732 -0.4875 0 0.195122 -0.4875 0 0.219512 -0.4875 0 
0.243902 -0.4875 0 0.243902 -0.4625 0 0.219512 -0.4625 0 
0.292683 -0.4875 0 0.268293 -0.4625 0 0.268293 -0.4875 0 
0.292683 -0.4625 0 0.317073 -0.4875 0 0.341463 -0.4625 0 
0.341463 -0.4875 0 0.317073 -0.4625 0 0.390244 -0.4875 0 
0.390244 -0.4625 0 0.365854 -0.4625 0 0.365854 -0.4875 0 
0.439024 -0.4625 0 0.414634 -0.4875 0 0.439024 -0.4875 0 
0.414634 -0.4625 0 0.463415 -0.4625 0 0.487805 -0.4875 0 
0.487805 -0.4625 0 0.463415 -0.4875 0 0.5375 -0.4875 0 
0.5375 -0.4625 0 0.5125 -0.4625 0 0.5125 -0.4875 0 
-0.5375 -0.4125 0 -0.5125 -0.4125 0 -0.5375 -0.4375 0 
-0.5125 -0.4375 0 -0.489933 -0.40825 0 -0.465971 -0.437868 0 
-0.464173 -0.41389 0 -0.489125 -0.435471 0 -0.440451 -0.438174 0 
-0.414902 -0.411304 0 -0.439408 -0.413778 0 -0.416051 -0.436933 0 
-0.393095 -0.436657 0 -0.38949 -0.411522 0 -0.360753 -0.412273 0 
-0.37059 -0.435805 0 -0.3039 -0.438426 0 -0.338813 -0.407797 0 
-0.347128 -0.438082 0 -0.325894 -0.433591 0 -0.314233 -0.409762 0 
-0.258444 -0.436788 0 -0.29064 -0.412356 0 -0.280568 -0.435468 0 
-0.263358 -0.409941 0 -0.212693 -0.437328 0 -0.235883 -0.436152 0 
-0.216054 -0.412105 0 -0.240716 -0.409741 0 -0.191228 -0.41072 0 
-0.18965 -0.43635 0 -0.16618 -0.437763 0 -0.166859 -0.412516 0 
-0.121178 -0.436703 0 -0.143366 -0.435423 0 -0.142035 -0.409285 0 
-0.116251 -0.412474 0 -0.0976874 -0.437515 0 -0.0875955 -0.415374 0 
-0.0591742 -0.412417 0 -0.0723571 -0.437512 0 -0.0010396 -0.437307 0 
-0.0489811 -0.436108 0 -0.00708182 -0.411328 0 -0.0251104 -0.437595 0 
-0.0312949 -0.413089 0 0.0438813 -0.413588 0 0.0168532 -0.414137 0 
0.024006 -0.437686 0 0.0485245 -0.437764 0 0.0720962 -0.436265 0 
0.0907114 -0.412754 0 0.095894 -0.437831 0 0.0667364 -0.409584 0 
0.119725 -0.436818 0 0.14318 -0.437054 0 0.114658 -0.4114 0 
0.138821 -0.41105 0 0.162437 -0.412895 0 0.193501 -0.437773 0 
0.186756 -0.41506 0 0.167522 -0.438273 0 0.216943 -0.437331 0 
0.226268 -0.416282 0 0.206077 -0.404364 0 0.243675 -0.439645 0 
0.297544 -0.435915 0 0.255331 -0.420124 0 0.278934 -0.413879 0 
0.273659 -0.439758 0 0.313566 -0.416968 0 0.349196 -0.404432 0 
0.324084 -0.440757 0 0.340921 -0.425153 0 0.373879 -0.421085 0 
0.389231 -0.439743 0 0.3587 -0.440319 0 0.419631 -0.440329 0 
0.434384 -0.421264 0 0.426353 -0.400694 0 0.40449 -0.420904 0 
0.490871 -0.421519 0 0.462994 -0.419409 0 0.480823 -0.44127 0 
0.45072 -0.440062 0 0.5375 -0.4375 0 0.5125 -0.4375 0 
0.5375 -0.4125 0 0.5125 -0.4125 0 -0.5375 -0.3875 0 
-0.5375 -0.3625 0 -0.5125 -0.3875 0 -0.5125 -0.3625 0 
-0.456077 -0.372636 0 -0.491056 -0.376864 0 -0.477554 -0.357934 0 
-0.470532 -0.391294 0 -0.406775 -0.389337 0 -0.405286 -0.355322 0 
-0.439303 -0.354294 0 -0.423532 -0.373237 0 -0.439635 -0.391428 0 
-0.367077 -0.358371 0 -0.354162 -0.381486 0 -0.387865 -0.371848 0 
-0.375579 -0.392311 0 -0.320057 -0.358832 0 -0.33118 -0.383019 0 
-0.307144 -0.385393 0 -0.343106 -0.355205 0 -0.291918 -0.36663 0 
-0.259398 -0.379852 0 -0.269396 -0.357605 0 -0.280436 -0.390512 0 
-0.237961 -0.360467 0 -0.213095 -0.363906 0 -0.236854 -0.385624 0 
-0.211835 -0.387973 0 -0.186046 -0.386227 0 -0.155871 -0.367349 0 
-0.187311 -0.363439 0 -0.161174 -0.388314 0 -0.101729 -0.393938 0 
-0.1311 -0.388446 0 -0.132023 -0.364664 0 -0.106714 -0.371868 0 
-0.0733463 -0.394031 0 -0.0799156 -0.371704 0 -0.0536097 -0.373525 0 
-0.0281559 -0.364013 0 -0.00594698 -0.358465 0 -0.0410031 -0.392037 0 
-0.0153682 -0.386156 0 0.0333265 -0.392877 0 0.0168789 -0.364268 0 
0.0409101 -0.369866 0 0.00848019 -0.387642 0 0.06102 -0.384874 0 
0.0653321 -0.357908 0 0.0860678 -0.387636 0 0.0885986 -0.364907 0 
0.119322 -0.36542 0 0.137517 -0.387258 0 0.111064 -0.386863 0 
0.151884 -0.368959 0 0.166623 -0.389775 0 0.188336 -0.384328 0 
0.173681 -0.359372 0 0.19997 -0.363281 0 0.241958 -0.397774 0 
0.237875 -0.371586 0 0.219835 -0.351736 0 0.217709 -0.38337 0 
0.280075 -0.374547 0 0.256921 -0.360939 0 0.285244 -0.35139 0 
0.263818 -0.390347 0 0.29428 -0.39919 0 0.342006 -0.381134 0 
0.321513 -0.362092 0 0.322908 -0.395853 0 0.305074 -0.376485 0 
0.349561 -0.359191 0 0.390458 -0.362858 0 0.397588 -0.399661 0 
0.370804 -0.375179 0 0.373233 -0.397012 0 0.406473 -0.378963 0 
0.432166 -0.377318 0 0.426919 -0.356206 0 0.482545 -0.399588 0 
0.457832 -0.375658 0 0.460547 -0.354581 0 0.486289 -0.380164 0 
0.454021 -0.398108 0 0.487317 -0.358282 0 0.5125 -0.3875 0 
0.5375 -0.3875 0 0.5125 -0.3625 0 0.5375 -0.3625 0 
-0.5125 -0.3375 0 -0.5375 -0.3375 0 -0.5125 -0.3125 0 
-0.5375 -0.3125 0 -0.490759 -0.338615 0 -0.458549 -0.340405 0 
-0.453557 -0.302205 0 -0.490769 -0.305758 0 -0.472573 -0.320871 0 
-0.400894 -0.321996 0 -0.440406 -0.321667 0 -0.42088 -0.306291 0 
-0.421143 -0.337167 0 -0.361321 -0.331019 0 -0.385135 -0.339818 0 
-0.37389 -0.311464 0 -0.303028 -0.306013 0 -0.344197 -0.306738 0 
-0.315542 -0.32494 0 -0.336723 -0.331179 0 -0.301071 -0.343279 0 
-0.280676 -0.309789 0 -0.254345 -0.3168 0 -0.28006 -0.332933 0 
-0.252815 -0.340179 0 -0.229474 -0.313348 0 -0.226324 -0.337023 0 
-0.202665 -0.340148 0 -0.205308 -0.312388 0 -0.170533 -0.347062 0 
-0.165074 -0.310128 0 -0.18237 -0.326549 0 -0.142724 -0.315147 0 
-0.124566 -0.342278 0 -0.117347 -0.319393 0 -0.149295 -0.338268 0 
-0.0736449 -0.34831 0 -0.0929704 -0.326024 0 -0.100039 -0.349076 0 
-0.0670997 -0.323921 0 -0.0832994 -0.30257 0 -0.00371391 -0.332223 0 
-0.0446444 -0.319029 0 -0.0276897 -0.33607 0 -0.0495219 -0.348428 0 
-0.0170463 -0.309599 0 0.0428111 -0.344825 0 0.0481283 -0.302749 0 
0.0269425 -0.316318 0 0.00602062 -0.304666 0 0.0190963 -0.338492 0 
0.0551266 -0.32582 0 0.0789333 -0.33673 0 0.076954 -0.311111 0 
0.137129 -0.349147 0 0.103548 -0.34641 0 0.141991 -0.313901 0 
0.123707 -0.329083 0 0.101261 -0.319846 0 0.15769 -0.337296 0 
0.185745 -0.338863 0 0.190389 -0.30948 0 0.168375 -0.316087 0 
0.226122 -0.314775 0 0.207147 -0.32997 0 0.238631 -0.339187 0 
0.2643 -0.337016 0 0.250062 -0.314901 0 0.280463 -0.320662 0 
0.333068 -0.339465 0 0.305382 -0.342612 0 0.305231 -0.31946 0 
0.328572 -0.315019 0 0.394433 -0.30822 0 0.3844 -0.32856 0 
0.366676 -0.305418 0 0.353875 -0.325469 0 0.369105 -0.345664 0 
0.441033 -0.338672 0 0.435463 -0.312234 0 0.404691 -0.345141 0 
0.416059 -0.325218 0 0.48516 -0.336787 0 0.463047 -0.303823 0 
0.461527 -0.326669 0 0.489239 -0.314264 0 0.5375 -0.3125 0 
0.5125 -0.3125 0 0.5125 -0.3375 0 0.5375 -0.3375 0 
-0.5375 -0.2875 0 -0.5375 -0.2625 0 -0.5125 -0.2875 0 
-0.5125 -0.2625 0 -0.454617 -0.27115 0 -0.473767 -0.288261 0 
-0.490941 -0.272213 0 -0.472909 -0.254752 0 -0.417943 -0.256385 0 
-0.434764 -0.284328 0 -0.439002 -0.251991 0 -0.411016 -0.280024 0 
-0.366837 -0.251873 0 -0.350106 -0.269141 0 -0.361234 -0.289712 0 
-0.393894 -0.25492 0 -0.393838 -0.297456 0 -0.381743 -0.275578 0 
-0.301818 -0.280293 0 -0.328241 -0.270032 0 -0.306526 -0.255865 0 
-0.326103 -0.294496 0 -0.266488 -0.259707 0 -0.279749 -0.280569 0 
-0.259656 -0.292453 0 -0.222803 -0.258447 0 -0.212352 -0.286331 0 
-0.24461 -0.266361 0 -0.235439 -0.289061 0 -0.18656 -0.296904 0 
-0.174613 -0.276282 0 -0.170826 -0.252573 0 -0.19876 -0.267472 0 
-0.153315 -0.284799 0 -0.101158 -0.273635 0 -0.12528 -0.267496 0 
-0.131489 -0.291996 0 -0.146774 -0.257955 0 -0.107222 -0.297096 0 
-0.0511934 -0.268915 0 -0.0767513 -0.277201 0 -0.0709693 -0.251321 0 
-0.058638 -0.295534 0 -0.0343081 -0.294014 0 -0.0261709 -0.270918 0 
-0.00446208 -0.251607 0 -0.00538456 -0.281966 0 0.026108 -0.287686 0 
0.0423762 -0.256359 0 0.0152023 -0.267455 0 0.0496442 -0.276447 0 
0.0757239 -0.263612 0 0.0718038 -0.287874 0 0.0981528 -0.29359 0 
0.100154 -0.271382 0 0.12203 -0.256534 0 0.121272 -0.299068 0 
0.130298 -0.277415 0 0.175781 -0.28723 0 0.195649 -0.275366 0 
0.177286 -0.256443 0 0.155321 -0.266831 0 0.152638 -0.292077 0 
0.210348 -0.296464 0 0.233198 -0.259627 0 0.206547 -0.255979 0 
0.248395 -0.291601 0 0.226707 -0.281151 0 0.27316 -0.298079 0 
0.299831 -0.295828 0 0.284169 -0.275535 0 0.279378 -0.251737 0 
0.258652 -0.269926 0 0.335386 -0.266284 0 0.307823 -0.265716 0 
[...]
POINT_DATA 2798
SCALARS id float
LOOKUP_TABLE default
2621 2600 2601 2620 2640 2642 2643 2641 2644 
2646 2647 2645 2651 2650 2649 2648 2652 2655 
2653 2654 2656 2658 2657 2659 2662 2663 2660 
2661 2666 2667 2665 2664 2668 2669 2670 2671 
2675 2672 2674 2673 2676 2681 2678 2679 2680 
2677 2682 2683 2685 2684 2687 2689 2686 2688 
2691 2690 2692 2693 2697 2695 2694 2696 2698 
2700 2701 2699 2704 2703 2702 2705 2706 2709 
2708 2707 2712 2713 2711 2710 2717 2714 2716 
2715 2719 2720 2721 2718 2742 2743 2723 2722 
2603 2623 2602 2622 1661 1678 1697 1660 1696 
1750 1715 1714 1732 1768 1823 1786 1840 1841 
1804 1822 1859 1876 1877 1858 1913 1912 1894 
1949 1931 1967 1930 1948 1985 1984 1966 2003 
2002 2020 2057 2093 2038 2092 2056 2129 2074 
2111 2165 2147 2110 2128 2146 2183 2164 2184 
2182 2200 2201 2219 2237 2236 2255 2218 2254 
2273 2274 2272 2309 2291 2310 2290 2328 2347 
2308 2327 2346 2345 2326 2344 2364 2366 2365 
2381 2363 2380 2362 2744 2724 2745 2725 2604 
2605 2624 2625 1716 1662 1698 1679 1787 1788 
1751 1769 1733 1825 1824 1806 1805 1861 1842 
1860 1843 1878 1914 1896 1895 1933 1968 1932 
1950 1986 2022 2005 2004 2039 2021 2040 2058 
2075 2076 2094 2131 2149 2112 2130 2166 2167 
2185 2148 2203 2222 2202 2221 2239 2238 2220 
2257 2256 2275 2276 2294 2292 2295 2278 2293 
2312 2296 2314 2311 2329 2331 2332 2330 2313 
2333 2352 2349 2350 2348 2351 2368 2369 2382 
2367 2386 2384 2383 2385 2726 2746 2727 2747 
2626 2606 2627 2607 1680 1734 1735 1663 1717 
1789 1752 1771 1770 1844 1807 1826 1898 1881 
1880 1862 1879 1916 1934 1897 1915 1952 1951 
1987 1969 2023 2042 2024 2060 2059 2078 2041 
2095 2096 2077 2114 2097 2168 2132 2150 2113 
2169 2204 2190 2205 2187 2186 2206 2223 2207 
2258 2240 2242 2241 2224 2259 2277 2261 2260 
2280 2279 2297 2298 2281 2299 2316 2315 2282 
2300 2318 2335 2336 2317 2334 2370 2372 2353 
2354 2387 2371 2389 2388 2749 2729 2728 2748 
2608 2609 2628 2629 1718 1699 1681 1700 1772 
1753 1736 1790 1864 1882 1863 1827 1808 1845 
1917 1900 1918 1899 1954 1935 1953 1989 1988 
1971 1970 2006 2025 2026 2007 2043 2080 2062 
2061 2044 2079 2116 2098 2099 2115 2133 2151 
2170 2188 2189 2155 2172 2173 2156 2191 2208 
2174 2209 2225 2226 2244 2245 2210 2227 2243 
2262 2211 2228 2246 2263 2264 2265 2229 2072 
2194 2125 2212 2247 2283 2230 2142 2266 2284 
2248 1875 2195 2337 2391 2390 2267 2231 2751 
2731 2730 2750 2630 2631 2611 2610 1719 1664 
1682 1665 1809 1754 1737 1865 1828 1846 1883 
1919 1901 1884 1902 1936 1937 1955 1956 1990 
1973 1972 1991 1992 2027 2008 2009 2063 2010 
2045 2028 2064 2046 2117 2081 2152 2134 2136 
2082 2135 2154 2171 2153 2137 2138 2123 2140 
2139 2089 2157 2141 2192 2158 2053 2175 2036 
2159 2177 2193 1893 2124 1821 2054 1911 1522 
1929 1581 2018 1441 1362 21 1481 1461 1620 
340 2373 2355 2301 280 2090 2752 2732 2733 
2753 2612 2632 2633 2613 1720 1683 1701 1666 
1755 1773 1791 1792 1829 1866 1847 1810 1848 
1920 1903 1867 1885 1921 1939 1938 1974 1957 
1976 1924 1958 1905 1975 1977 1959 2011 1994 
1993 2047 2030 2012 2029 2065 2100 2101 2084 
2083 2119 2118 2120 2103 2086 2104 2121 2068 
2071 2105 2087 2122 2106 2070 2052 2088 1839 
2051 1857 2000 2035 2176 1 1803 2107 140 
1838 1361 1946 180 120 1561 1301 1521 1122 
20 1161 100 60 0 320 2213 1341 2754 
2735 2734 2755 2614 2635 2634 2615 1702 1667 
1668 1684 1756 1738 1774 1721 1831 1793 1811 
1830 1813 1869 1849 1850 1868 1922 1887 1886 
1940 1904 1870 1781 1923 1871 1834 1711 1852 
1835 1817 1798 1925 1960 1906 1941 1995 1978 
2048 2013 2066 2031 1996 2014 2102 1997 2049 
1961 1945 2067 2085 2015 1962 2050 2032 2033 
80 1785 1980 2069 2016 1999 2017 1998 2034 
1963 1982 1981 1964 1820 1910 1600 1928 1580 
40 1181 1201 1541 1101 1420 1281 1460 1321 
1183 1400 1221 2736 2737 2756 2757 2617 2637 
2616 2636 1704 1703 1722 1685 1669 1776 1739 
1757 1758 1775 1812 1777 1794 1832 1833 1795 
1815 1779 1780 1851 1816 1726 1673 1727 1689 
1797 2361 1744 1745 1746 1100 1674 1944 1888 
1799 1763 1728 1180 1943 1927 1695 820 1889 
1979 1909 1783 1874 462 1942 1856 1890 1693 
1926 1908 1801 1891 1819 1837 1892 1749 1818 
1560 1731 1500 1712 160 1713 1802 1261 1784 
1241 1540 1040 1141 1520 1121 1081 1440 1766 
2758 2738 2739 2759 2565 2566 2567 2564 2570 
2569 2571 2568 2575 2572 2573 2574 2578 2576 
2577 2579 2581 2582 2580 2583 2584 2587 2585 
2586 2588 2589 2591 2590 2592 2593 2594 2595 
2596 2599 2598 2597 2618 2639 2638 2619 1740 
1670 1686 1723 1741 1687 1705 1760 1759 1742 
2358 1724 1778 1814 1761 1796 1762 2396 1725 
1691 640 1707 2270 1708 2394 2377 2253 2343 
800 461 1709 2307 1140 2145 1710 2199 2325 
1020 1676 1080 762 2288 660 680 542 1060 
1120 2397 1675 2378 900 780 1853 761 1690 
1220 601 482 1872 1855 1907 1748 1873 1836 
1380 1300 1765 1800 1730 1280 1729 1782 1767 
1001 881 1480 1041 1360 862 1747 2760 2740 
2761 2741 2765 2762 2764 2763 2767 2766 2769 
2768 2772 2770 2773 2771 2774 2775 2777 2776 
2780 2779 2781 2778 2785 2782 2783 2784 2786 
2788 2789 2787 2793 2791 2792 2790 2795 2796 
2794 2797 1182 2249 220 903 2338 1381 2302 
260 1421 240 1184 2392 2143 1322 1402 2320 
1947 2356 2232 1502 2250 2214 1342 2126 1204 
2215 1382 2303 2251 1523 1283 1582 2374 2357 
1303 300 2252 2234 201 2216 2161 2305 2179 
2375 161 2323 41 2376 2339 2359 2198 2393 
2233 1671 2163 2395 1688 2180 1743 2360 2055 
2235 2321 1983 2304 2287 2197 2306 2109 360 
1706 1672 341 840 2019 163 2037 2271 500 
2324 2341 2340 2342 2217 480 2322 520 421 
460 2091 223 420 2127 2289 860 261 281 
561 700 560 2379 441 540 720 481 620 
1160 600 263 422 1764 1854 501 1692 740 
521 541 381 363 1200 1694 920 1340 721 
701 802 1242 1677 1260 1240 1320 861 682 
921 822 941 641 1102 980 981 801 742 
901 1062 1021 1000 1202 2285 1401 1061 2178 
783 843 1142 2319 1262 962 1601 1282 1222 
883 2160 804 823 922 744 1640 1203 824 
743 1043 1243 982 1022 923 1543 1083 863 
1023 1044 864 1103 1163 1162 943 963 1042 
825 1123 983 806 1621 884 1223 181 1003 
904 1024 1542 1064 1143 1144 1124 1045 1185 
1004 1263 1084 1302 1105 2196 1483 1145 1106 
1422 1544 2108 1501 1562 1641 1482 1264 1442 
1602 200 1344 1383 162 1564 1463 1503 1563 
2162 1443 141 143 81 1366 61 42 1424 
2268 182 83 23 2269 2073 2001 2286 121 
22 3 1644 82 440 1643 400 63 1605 
380 1604 104 221 43 4 362 144 321 
241 302 124 2181 105 45 580 301 442 
242 262 282 361 401 184 264 224 283 
323 722 402 880 661 382 383 423 621 
343 463 443 403 404 760 344 681 940 
522 364 582 602 703 960 483 702 781 
782 583 841 662 683 741 942 1082 821 
723 803 1002 664 763 961 684 603 663 
564 624 644 565 645 585 625 882 704 
605 1063 665 842 764 705 844 724 902 
785 805 765 784 766 786 745 746 787 
826 924 845 866 885 905 865 964 886 
925 944 985 1025 945 906 984 1104 1065 
1085 1164 1086 1066 1125 1224 1363 1026 1047 
1087 1165 1225 1244 1126 1205 1323 1343 1186 
1462 1403 1364 1423 1304 1404 1385 1207 1365 
1384 1345 1324 1285 1524 1346 1325 1622 2144 
1464 1444 1642 84 1583 1545 103 1965 142 
2 122 102 1623 1485 1603 101 1565 1505 
123 1525 1585 1625 62 1624 44 1586 25 
26 5 64 6 24 85 65 222 27 
46 66 183 86 203 244 165 166 342 
204 205 243 303 225 322 245 324 186 
304 305 284 285 286 325 266 365 345 
384 581 405 562 424 502 385 503 563 
622 444 642 544 643 464 543 623 524 
504 446 426 505 485 604 466 486 584 
525 545 506 546 526 547 567 626 586 
566 646 685 587 607 606 725 666 686 
627 687 647 667 706 767 727 747 726 
807 707 827 748 846 788 847 887 867 
848 768 907 868 869 849 926 888 966 
965 947 967 1046 986 946 1007 1006 1005 
987 1067 1068 1088 1027 1089 1146 1107 1108 
1284 1226 1265 1166 1227 1128 1147 1187 1206 
1245 1167 1208 1266 1246 1305 1228 1405 1287 
1306 1286 1267 1406 1367 1386 1425 1347 1426 
1387 1504 1584 1484 1445 1465 1486 1467 1446 
1466 1487 1546 1506 1566 1547 1507 1526 1645 
1527 1548 1567 1606 1587 1646 1647 1626 47 
7 1648 1627 8 67 202 87 164 125 
146 145 147 126 185 127 187 206 167 
265 207 227 226 228 346 247 306 208 
246 366 267 287 326 307 327 386 523 
347 484 425 406 407 445 465 428 408 
409 427 448 447 468 467 487 488 507 
508 528 548 527 549 568 569 588 589 
609 608 628 629 668 648 649 688 708 
669 689 709 749 729 728 769 750 808 
789 828 830 829 809 870 850 908 890 
889 928 927 910 909 948 929 988 968 
949 969 1008 1028 989 1029 1048 1009 1069 
1127 1090 1109 1049 1110 1129 1130 1148 1149 
1188 1168 1189 1209 1210 1247 1229 1230 1248 
1268 1307 1309 1326 1327 1288 1308 1289 1368 
1329 1348 1328 1388 1427 1407 1408 1429 1428 
1447 1409 1469 1449 1468 1448 1508 1488 1509 
1489 1528 1529 1568 1549 1589 1588 1607 1608 
1609 1628 1629 28 9 1649 29 49 48 
68 106 107 69 88 89 108 128 129 
168 148 189 169 149 188 210 209 229 
190 248 269 268 249 288 308 289 309 
348 328 329 349 367 387 368 388 369 
411 429 410 391 390 450 430 431 449 
470 469 490 489 529 510 509 530 570 
550 571 551 591 610 590 611 630 651 
650 631 671 670 691 690 731 730 711 
710 771 751 770 831 811 791 790 810 
852 871 851 872 892 891 912 911 931 
951 950 930 971 991 990 970 1030 1011 
1010 1031 1071 1070 1050 1051 1091 1131 1111 
1092 1112 1169 1151 1132 1170 1150 1212 1191 
1190 1211 1269 1231 1250 1249 1290 1271 1270 
1291 1331 1311 1330 1310 1350 1349 1370 1369 
1410 1411 1389 1390 1450 1451 1431 1430 1470 
1491 1471 1490 1511 1510 1530 1531 1569 1571 
1551 1570 1550 1590 1591 1630 1611 1610 1651 
1631 1650 10 30 31 11 50 51 70 
71 90 91 109 110 130 131 151 170 
150 171 211 191 230 231 251 250 271 
291 290 270 330 331 310 311 371 350 
389 370 413 393 392 412 432 452 433 
451 492 472 491 471 531 532 511 513 
512 552 553 572 573 613 593 612 592 
632 652 633 653 673 693 692 672 732 
713 733 712 752 772 773 753 793 812 
832 813 792 873 874 854 833 853 894 
893 914 913 933 953 952 932 972 973 
993 992 1033 1032 1013 1012 1052 1053 1072 
1073 1114 1094 1093 1113 1153 1152 1133 1134 
1192 1171 1172 1213 1251 1233 1252 1253 1232 
1272 1273 1292 1293 1313 1332 1312 1333 1372 
1373 1351 1353 1352 1371 1413 1391 1392 1412 
1452 1432 1453 1433 1472 1493 1473 1492 1533 
1512 1532 1513 1572 1552 1573 1553 1612 1592 
1613 1593 1633 1632 1652 1653 32 33 12 
13 52 72 73 53 92 111 113 112 
93 132 152 153 133 173 172 212 192 
193 213 253 233 252 232 293 292 273 
272 332 313 312 373 352 372 351 353 
394 415 414 435 455 454 475 453 434 
493 473 495 474 494 514 533 534 515 
555 574 575 554 614 594 595 615 655 
634 635 654 675 694 695 674 714 734 
715 735 775 755 774 754 815 794 814 
795 835 875 855 896 834 915 895 935 
916 975 934 955 954 974 1015 995 994 
1014 1055 1034 1035 1075 1095 1136 1074 1054 
1135 1115 1155 1175 1173 1174 1154 1235 1214 
1194 1193 1234 1255 1275 1254 1274 1295 1294 
1314 1335 1334 1355 1315 1374 1354 1375 1393 
1395 1394 1414 1415 1434 1454 1455 1435 1474 
1475 1495 1494 1514 1515 1535 1534 1575 1555 
1554 1574 1595 1615 1594 1614 1634 1635 1654 
1655 15 55 34 35 14 54 75 95 
74 94 115 135 114 134 174 154 155 
175 195 214 194 235 234 275 255 254 
274 294 315 295 334 314 333 374 375 
395 354 537 476 436 456 517 557 577 
496 597 516 536 617 657 637 535 556 
677 717 596 697 576 616 737 757 636 
797 777 676 656 716 817 837 736 696 
857 776 756 877 917 897 796 816 836 
957 856 937 936 997 876 977 1017 956 
976 1037 996 1016 1057 1077 1036 1056 1097 
1096 1076 1137 1117 1197 1177 1116 1157 1237 
1217 1156 1176 1196 1257 1195 1277 1215 1317 
1236 1297 1216 1357 1256 1276 1337 1316 1377 
1296 1397 1336 1417 1356 1437 1376 1457 1477 
1396 1416 1517 1497 1436 1537 1557 1456 1476 
1577 1516 1496 1617 1597 1637 1556 1657 1536 
37 17 1596 1576 57 77 1636 1616 1656 
16 36 97 117 56 157 76 137 177 
197 96 217 116 156 136 237 277 216 
297 196 176 257 236 215 337 317 256 
357 397 296 377 276 336 316 356 417 
457 335 355 376 437 396 477 416 497 
59 878 39 858 898 99 79 918 958 
119 938 139 978 159 179 998 1038 219 
1018 199 1058 239 1078 259 1098 1118 299 
279 319 359 1138 339 1158 399 1198 1218 
1178 379 419 1238 1258 439 459 1278 1298 
479 499 1318 519 559 1338 1358 539 1398 
619 579 599 1378 639 659 1438 1458 1418 
679 1478 1498 699 719 1538 739 1518 1578 
759 1558 779 1618 819 1598 799 879 839 
1658 859 1638 18 919 38 899 98 58 
78 939 959 999 118 138 979 178 158 
1019 1039 198 1079 218 1059 258 1119 1099 
238 1139 278 318 1159 1179 298 338 1199 
358 378 1239 398 1219 418 1279 1259 438 
1299 1319 458 478 1339 498 518 1359 558 
1379 538 1399 1419 1439 578 598 618 1459 
1479 638 1499 678 1519 658 1559 1539 718 
698 1579 758 1599 738 798 1619 778 1639 
838 818 19 1659 2399 2398 2401 2400 2404 
2402 2405 2403 2407 2409 2406 2408 2410 2412 
2413 2411 2414 2416 2417 2415 2421 2420 2418 
2419 2426 2425 2422 2427 2424 2423 2430 2431 
2429 2428 2432 2435 2434 2433 2439 2438 2436 
2437 2442 2443 2441 2440 2447 2444 2445 2446 
2449 2448 2450 2451 2455 2452 2453 2454 2457 
2458 2456 2459 2463 2461 2460 2462 2467 2466 
2464 2465 2469 2471 2470 2468 2474 2475 2472 
2473 2480 2481 2476 2477 2478 2479 2485 2484 
2483 2482 2488 2487 2486 2489 2493 2492 2490 
2491 2497 2496 2495 2494 2498 2500 2501 2499 
2505 2503 2504 2502 2509 2508 2507 2506 2511 
2510 2513 2512 2516 2514 2515 2517 2519 2518 
2520 2521 2525 2522 2523 2524 2527 2528 2529 
2526 2532 2533 2531 2530 2534 2535 2536 2537 
2538 2539 2542 2543 2540 2541 2544 2545 2546 
2547 2548 2551 2550 2549 2554 2555 2553 2552 
2558 2556 2557 2559 2560 2561 2562 2563 
FIELD FieldData 7
r 3 2798 float
-0.5125 -0.4625 0 -0.5375 -0.4875 0 -0.5375 -0.4625 0 
-0.5125 -0.4875 0 -0.487805 -0.4875 0 -0.463415 -0.4875 0 
-0.463415 -0.4625 0 -0.487805 -0.4625 0 -0.439024 -0.4875 0 
-0.414634 -0.4875 0 -0.414634 -0.4625 0 -0.439024 -0.4625 0 
-0.365854 -0.4625 0 -0.365854 -0.4875 0 -0.390244 -0.4625 0 
-0.390244 -0.4875 0 -0.341463 -0.4875 0 -0.317073 -0.4625 0 
-0.341463 -0.4625 0 -0.317073 -0.4875 0 -0.292683 -0.4875 0 
-0.268293 -0.4875 0 -0.292683 -0.4625 0 -0.268293 -0.4625 0 
-0.219512 -0.4875 0 -0.219512 -0.4625 0 -0.243902 -0.4875 0 
-0.243902 -0.4625 0 -0.170732 -0.4875 0 -0.170732 -0.4625 0 
-0.195122 -0.4625 0 -0.195122 -0.4875 0 -0.146341 -0.4875 0 
-0.146341 -0.4625 0 -0.121951 -0.4875 0 -0.121951 -0.4625 0 
-0.0731707 -0.4625 0 -0.097561 -0.4875 0 -0.0731707 -0.4875 0 
-0.097561 -0.4625 0 -0.0487805 -0.4875 0 -1.86265e-08 -0.4625 0 
-0.0243903 -0.4875 0 -0.0243903 -0.4625 0 -1.86265e-08 -0.4875 0 
-0.0487805 -0.4625 0 0.0243902 -0.4875 0 0.0243902 -0.4625 0 
0.0487805 -0.4625 0 0.0487805 -0.4875 0 0.0731707 -0.4625 0 
0.097561 -0.4625 0 0.0731707 -0.4875 0 0.097561 -0.4875 0 
0.121951 -0.4625 0 0.121951 -0.4875 0 0.146341 -0.4875 0 
0.146341 -0.4625 0 0.195122 -0.4625 0 0.170732 -0.4625 0 
0.170732 -0.4875 0 0.195122 -0.4875 0 0.219512 -0.4875 0 
0.243902 -0.4875 0 0.243902 -0.4625 0 0.219512 -0.4625 0 
0.292683 -0.4875 0 0.268293 -0.4625 0 0.268293 -0.4875 0 
0.292683 -0.4625 0 0.317073 -0.4875 0 0.341463 -0.4625 0 
0.341463 -0.4875 0 0.317073 -0.4625 0 0.390244 -0.4875 0 
0.390244 -0.4625 0 0.365854 -0.4625 0 0.365854 -0.4875 0 
0.439024 -0.4625 0 0.414634 -0.4875 0 0.439024 -0.4875 0 
0.414634 -0.4625 0 0.463415 -0.4625 0 0.487805 -0.4875 0 
0.487805 -0.4625 0 0.463415 -0.4875 0 0.5375 -0.4875 0 
0.5375 -0.4625 0 0.5125 -0.4625 0 0.5125 -0.4875 0 
-0.5375 -0.4125 0 -0.5125 -0.4125 0 -0.5375 -0.4375 0 
-0.5125 -0.4375 0 -0.489933 -0.40825 0 -0.465971 -0.437868 0 
-0.464173 -0.41389 0 -0.489125 -0.435471 0 -0.440451 -0.438174 0 
-0.414902 -0.411304 0 -0.439408 -0.413778 0 -0.416051 -0.436933 0 
-0.393095 -0.436657 0 -0.38949 -0.411522 0 -0.360753 -0.412273 0 
-0.37059 -0.435805 0 -0.3039 -0.438426 0 -0.338813 -0.407797 0 
-0.347128 -0.438082 0 -0.325894 -0.433591 0 -0.314233 -0.409762 0 
-0.258444 -0.436788 0 -0.29064 -0.412356 0 -0.280568 -0.435468 0 
-0.263358 -0.409941 0 -0.212693 -0.437328 0 -0.235883 -0.436152 0 
-0.216054 -0.412105 0 -0.240716 -0.409741 0 -0.191228 -0.41072 0 
-0.18965 -0.43635 0 -0.16618 -0.437763 0 -0.166859 -0.412516 0 
-0.121178 -0.436703 0 -0.143366 -0.435423 0 -0.142035 -0.409285 0 
-0.116251 -0.412474 0 -0.0976874 -0.437515 0 -0.0875955 -0.415374 0 
-0.0591742 -0.412417 0 -0.0723571 -0.437512 0 -0.0010396 -0.437307 0 
-0.0489811 -0.436108 0 -0.00708182 -0.411328 0 -0.0251104 -0.437595 0 
-0.0312949 -0.413089 0 0.0438813 -0.413588 0 0.0168532 -0.414137 0 
0.024006 -0.437686 0 0.0485245 -0.437764 0 0.0720962 -0.436265 0 
0.0907114 -0.412754 0 0.095894 -0.437831 0 0.0667364 -0.409584 0 
0.119725 -0.436818 0 0.14318 -0.437054 0 0.114658 -0.4114 0 
0.138821 -0.41105 0 0.162437 -0.412895 0 0.193501 -0.437773 0 
0.186756 -0.41506 0 0.167522 -0.438273 0 0.216943 -0.437331 0 
0.226268 -0.416282 0 0.206077 -0.404364 0 0.243675 -0.439645 0 
0.297544 -0.435915 0 0.255331 -0.420124 0 0.278934 -0.413879 0 
0.273659 -0.439758 0 0.313566 -0.416968 0 0.349196 -0.404432 0 
0.324084 -0.440757 0 0.340921 -0.425153 0 0.373879 -0.421085 0 
0.389231 -0.439743 0 0.3587 -0.440319 0 0.419631 -0.440329 0 
0.434384 -0.421264 0 0.426353 -0.400694 0 0.40449 -0.420904 0 
0.490871 -0.421519 0 0.462994 -0.419409 0 0.480823 -0.44127 0 
0.45072 -0.440062 0 0.5375 -0.4375 0 0.5125 -0.4375 0 
0.5375 -0.4125 0 0.5125 -0.4125 0 -0.5375 -0.3875 0 
-0.5375 -0.3625 0 -0.5125 -0.3875 0 -0.5125 -0.3625 0 
-0.456077 -0.372636 0 -0.491056 -0.376864 0 -0.477554 -0.357934 0 
-0.470532 -0.391294 0 -0.406775 -0.389337 0 -0.405286 -0.355322 0 
-0.439303 -0.354294 0 -0.423532 -0.373237 0 -0.439635 -0.391428 0 
-0.367077 -0.358371 0 -0.354162 -0.381486 0 -0.387865 -0.371848 0 
-0.375579 -0.392311 0 -0.320057 -0.358832 0 -0.33118 -0.383019 0 
-0.307144 -0.385393 0 -0.343106 -0.355205 0 -0.291918 -0.36663 0 
-0.259398 -0.379852 0 -0.269396 -0.357605 0 -0.280436 -0.390512 0 
-0.237961 -0.360467 0 -0.213095 -0.363906 0 -0.236854 -0.385624 0 
-0.211835 -0.387973 0 -0.186046 -0.386227 0 -0.155871 -0.367349 0 
-0.187311 -0.363439 0 -0.161174 -0.388314 0 -0.101729 -0.393938 0 
-0.1311 -0.388446 0 -0.132023 -0.364664 0 -0.106714 -0.371868 0 
-0.0733463 -0.394031 0 -0.0799156 -0.371704 0 -0.0536097 -0.373525 0 
-0.0281559 -0.364013 0 -0.00594698 -0.358465 0 -0.0410031 -0.392037 0 
-0.0153682 -0.386156 0 0.0333265 -0.392877 0 0.0168789 -0.364268 0 
0.0409101 -0.369866 0 0.00848019 -0.387642 0 0.06102 -0.384874 0 
0.0653321 -0.357908 0 0.0860678 -0.387636 0 0.0885986 -0.364907 0 
0.119322 -0.36542 0 0.137517 -0.387258 0 0.111064 -0.386863 0 
0.151884 -0.368959 0 0.166623 -0.389775 0 0.188336 -0.384328 0 
0.173681 -0.359372 0 0.19997 -0.363281 0 0.241958 -0.397774 0 
0.237875 -0.371586 0 0.219835 -0.351736 0 0.217709 -0.38337 0 
0.280075 -0.374547 0 0.256921 -0.360939 0 0.285244 -0.35139 0 
0.263818 -0.390347 0 0.29428 -0.39919 0 0.342006 -0.381134 0 
0.321513 -0.362092 0 0.322908 -0.395853 0 0.305074 -0.376485 0 
0.349561 -0.359191 0 0.390458 -0.362858 0 0.397588 -0.399661 0 
0.370804 -0.375179 0 0.373233 -0.397012 0 0.406473 -0.378963 0 
0.432166 -0.377318 0 0.426919 -0.356206 0 0.482545 -0.399588 0 
0.457832 -0.375658 0 0.460547 -0.354581 0 0.486289 -0.380164 0 
0.454021 -0.398108 0 0.487317 -0.358282 0 0.5125 -0.3875 0 
0.5375 -0.3875 0 0.5125 -0.3625 0 0.5375 -0.3625 0 
-0.5125 -0.3375 0 -0.5375 -0.3375 0 -0.5125 -0.3125 0 
-0.5375 -0.3125 0 -0.490759 -0.338615 0 -0.458549 -0.340405 0 
-0.453557 -0.302205 0 -0.490769 -0.305758 0 -0.472573 -0.320871 0 
-0.400894 -0.321996 0 -0.440406 -0.321667 0 -0.42088 -0.306291 0 
-0.421143 -0.337167 0 -0.361321 -0.331019 0 -0.385135 -0.339818 0 
-0.37389 -0.311464 0 -0.303028 -0.306013 0 -0.344197 -0.306738 0 
-0.315542 -0.32494 0 -0.336723 -0.331179 0 -0.301071 -0.343279 0 
-0.280676 -0.309789 0 -0.254345 -0.3168 0 -0.28006 -0.332933 0 
-0.252815 -0.340179 0 -0.229474 -0.313348 0 -0.226324 -0.337023 0 
-0.202665 -0.340148 0 -0.205308 -0.312388 0 -0.170533 -0.347062 0 
-0.165074 -0.310128 0 -0.18237 -0.326549 0 -0.142724 -0.315147 0 
-0.124566 -0.342278 0 -0.117347 -0.319393 0 -0.149295 -0.338268 0 
-0.0736449 -0.34831 0 -0.0929704 -0.326024 0 -0.100039 -0.349076 0 
-0.0670997 -0.323921 0 -0.0832994 -0.30257 0 -0.00371391 -0.332223 0 
-0.0446444 -0.319029 0 -0.0276897 -0.33607 0 -0.0495219 -0.348428 0 
-0.0170463 -0.309599 0 0.0428111 -0.344825 0 0.0481283 -0.302749 0 