# vtk DataFile Version 4.0
vtk output
ASCII
DATASET POLYDATA
FIELD FieldData 4
domain 1 3 string
domain_min:-20|-15
domain_max:20|15
cell_size:0.05

variables 1 2 string
dt:0.000372678
T:1.15712

constants 1 10 string
xsize:2
ysize:1
csize:0.05
dx:0.0238095
h:0.025
rho0:1000
mass:0.566894
g:1|0
c:13.4164
CFL:0.2

functions 1 8 string
time:T=(T+dt)
continuity:rho_dot=((-(rho*sph_D00(v,mass,rho,Wp52220)))+(((0.1*c)*h)*sph_L00(rho,mass,rho,Wp52220)))
irho:rho=(rho+int1((rho_dot,dt))
EOS:p=(((c^2)*(rho-rho0))+10000)
euler:a=if((gid,(0*v),(((-((1/rho)*sph_G11(p,mass,rho,Wp52220)))+(0.01*sph_L00(v,mass,rho,Wp52220)))+g))
vel:v=(v+int1((a,dt))
pos:r=(r+int1((v,dt))
new_dt:dt=(CFL*min((sqrt(((h/fmax(magnitude((a)))),(h/c)))

POINTS 2798 float
-0.5375 -0.4625 0 -0.5125 -0.4875 0 -0.5125 -0.4625 0 
-0.5375 -0.4875 0 -0.487805 -0.4875 0 -0.463415 -0.4875 0 
-0.463415 -0.4625 0 -0.487805 -0.4625 0 -0.414634 -0.4625 0 
-0.414634 -0.4875 0 -0.439024 -0.4875 0 -0.439024 -0.4625 0 
-0.390244 -0.4625 0 -0.390244 -0.4875 0 -0.365854 -0.4875 0 
-0.365854 -0.4625 0 -0.341463 -0.4875 0 -0.341463 -0.4625 0 
-0.317073 -0.4875 0 -0.317073 -0.4625 0 -0.292683 -0.4875 0 
-0.292683 -0.4625 0 -0.268293 -0.4625 0 -0.268293 -0.4875 0 
-0.243902 -0.4625 0 -0.219512 -0.4875 0 -0.219512 -0.4625 0 
-0.243902 -0.4875 0 -0.170732 -0.4875 0 -0.195122 -0.4625 0 
-0.195122 -0.4875 0 -0.170732 -0.4625 0 -0.121951 -0.4625 0 
-0.121951 -0.4875 0 -0.146341 -0.4625 0 -0.146341 -0.4875 0 
-0.097561 -0.4875 0 -0.097561 -0.4625 0 -0.0731707 -0.4875 0 
-0.0731707 -0.4625 0 -0.0487805 -0.4625 0 -0.0243903 -0.4625 0 
-0.0487805 -0.4875 0 -1.86265e-08 -0.4625 0 -1.86265e-08 -0.4875 0 
-0.0243903 -0.4875 0 0.0243902 -0.4875 0 0.0487805 -0.4875 0 
0.0243902 -0.4625 0 0.0487805 -0.4625 0 0.0731707 -0.4625 0 
0.097561 -0.4625 0 0.097561 -0.4875 0 0.0731707 -0.4875 0 
0.146341 -0.4875 0 0.146341 -0.4625 0 0.121951 -0.4625 0 
0.121951 -0.4875 0 0.170732 -0.4625 0 0.195122 -0.4625 0 
0.170732 -0.4875 0 0.195122 -0.4875 0 0.243902 -0.4625 0 
0.219512 -0.4625 0 0.219512 -0.4875 0 0.243902 -0.4875 0 
0.268293 -0.4875 0 0.292683 -0.4625 0 0.268293 -0.4625 0 
0.292683 -0.4875 0 0.341463 -0.4625 0 0.317073 -0.4875 0 
0.341463 -0.4875 0 0.317073 -0.4625 0 0.365854 -0.4875 0 
0.390244 -0.4625 0 0.390244 -0.4875 0 0.365854 -0.4625 0 
0.439024 -0.4875 0 0.414634 -0.4875 0 0.439024 -0.4625 0 
0.414634 -0.4625 0 0.487805 -0.4875 0 0.487805 -0.4625 0 
0.463415 -0.4875 0 0.463415 -0.4625 0 0.5375 -0.4625 0 
0.5125 -0.4625 0 0.5125 -0.4875 0 0.5375 -0.4875 0 
-0.5375 -0.4375 0 -0.5375 -0.4125 0 -0.5125 -0.4375 0 
-0.5125 -0.4125 0 -0.489136 -0.411685 0 -0.466588 -0.432461 0 
-0.453829 -0.409922 0 -0.487909 -0.43785 0 -0.430826 -0.414293 0 
-0.444688 -0.438839 0 -0.419421 -0.437715 0 -0.404815 -0.413768 0 
-0.382398 -0.406626 0 -0.360342 -0.408751 0 -0.372752 -0.434618 0 
-0.35076 -0.437038 0 -0.394544 -0.437459 0 -0.327741 -0.436536 0 
-0.305478 -0.436106 0 -0.337496 -0.410792 0 -0.314654 -0.408835 0 
-0.26874 -0.410688 0 -0.291757 -0.410407 0 -0.282717 -0.437194 0 
-0.259783 -0.436297 0 -0.202773 -0.410174 0 -0.238508 -0.434785 0 
-0.225075 -0.407818 0 -0.246589 -0.406223 0 -0.216951 -0.436136 0 
-0.194339 -0.437394 0 -0.158819 -0.404503 0 -0.170668 -0.436714 0 
-0.179698 -0.412202 0 -0.126951 -0.437774 0 -0.137441 -0.410629 0 
-0.113986 -0.412743 0 -0.102991 -0.43765 0 -0.149553 -0.434806 0 
-0.0915677 -0.408065 0 -0.0812793 -0.433636 0 -0.0607605 -0.436023 0 
-0.0713432 -0.40213 0 -0.0512686 -0.412232 0 -0.0173667 -0.431497 0 
-0.00734848 -0.40515 0 -0.0371811 -0.438408 0 -0.0303633 -0.406162 0 
0.0247032 -0.435216 0 0.0361727 -0.410238 0 0.00289441 -0.436924 0 
0.0472945 -0.438333 0 0.0134979 -0.408238 0 0.0586201 -0.409208 0 
0.0953674 -0.414315 0 0.0688525 -0.432834 0 0.0899389 -0.437586 0 
0.115475 -0.405695 0 0.131684 -0.426612 0 0.142764 -0.403934 0 
0.114725 -0.439356 0 0.150934 -0.440372 0 0.163551 -0.419485 0 
0.191997 -0.416701 0 0.180377 -0.43903 0 0.233285 -0.401893 0 
0.237674 -0.440138 0 0.208017 -0.439583 0 0.219821 -0.419911 0 
0.269097 -0.440415 0 0.285179 -0.424302 0 0.267057 -0.405042 0 
0.251302 -0.421854 0 0.320849 -0.426346 0 0.302962 -0.441398 0 
0.338903 -0.440417 0 0.303008 -0.408265 0 0.334809 -0.404983 0 
0.36938 -0.440239 0 0.384709 -0.422626 0 0.353774 -0.420614 0 
0.368616 -0.401582 0 0.419126 -0.426311 0 0.437186 -0.43937 0 
0.400872 -0.406298 0 0.438493 -0.410232 0 0.401634 -0.441088 0 
0.46206 -0.437661 0 0.487735 -0.439016 0 0.461324 -0.414526 0 
0.48749 -0.41572 0 0.5125 -0.4125 0 0.5375 -0.4375 0 
0.5375 -0.4125 0 0.5125 -0.4375 0 -0.5375 -0.3875 0 
-0.5375 -0.3625 0 -0.5125 -0.3625 0 -0.5125 -0.3875 0 
-0.478103 -0.360125 0 -0.490819 -0.379737 0 -0.47234 -0.396539 0 
-0.458078 -0.374739 0 -0.411438 -0.366516 0 -0.434298 -0.35908 0 
-0.415448 -0.391 0 -0.43854 -0.386504 0 -0.374858 -0.365966 0 
-0.390474 -0.383789 0 -0.359639 -0.383152 0 -0.336224 -0.384196 0 
-0.339586 -0.359379 0 -0.316443 -0.356613 0 -0.312422 -0.382852 0 
-0.288319 -0.384784 0 -0.264504 -0.383726 0 -0.292504 -0.359359 0 
-0.268403 -0.358349 0 -0.224579 -0.350487 0 -0.220852 -0.381177 0 
-0.203226 -0.359936 0 -0.242079 -0.377163 0 -0.246176 -0.350112 0 
-0.175043 -0.382744 0 -0.196627 -0.384915 0 -0.182912 -0.351124 0 
-0.162627 -0.360764 0 -0.101642 -0.382874 0 -0.109584 -0.354526 0 
-0.130475 -0.360575 0 -0.123619 -0.386846 0 -0.147174 -0.380724 0 
-0.0654695 -0.350371 0 -0.0614402 -0.379354 0 -0.0832455 -0.3718 0 
-0.0171223 -0.37821 0 -0.0432621 -0.354205 0 -0.0210113 -0.351768 0 
-0.0397708 -0.381557 0 0.0268067 -0.382796 0 0.0468033 -0.354837 0 
0.0490465 -0.382829 0 0.00137133 -0.350257 0 0.00492739 -0.378043 0 
0.0243301 -0.355566 0 0.0691626 -0.372213 0 0.0786545 -0.35153 0 
0.0778944 -0.398449 0 0.0950048 -0.381827 0 0.133791 -0.364799 0 
0.121202 -0.383678 0 0.103738 -0.36049 0 0.17331 -0.397262 0 
0.15194 -0.382476 0 0.163133 -0.360729 0 0.183683 -0.376796 0 
0.21923 -0.379418 0 0.20125 -0.361845 0 0.203271 -0.396224 0 
0.237834 -0.363167 0 0.249732 -0.385665 0 0.267669 -0.370619 0 
0.297738 -0.37014 0 0.284715 -0.390341 0 0.282495 -0.350048 0 
0.329871 -0.369318 0 0.349345 -0.385146 0 0.316023 -0.388517 0 
0.344761 -0.350671 0 0.312737 -0.350915 0 0.364641 -0.366944 0 
0.382694 -0.35257 0 0.384145 -0.384921 0 0.419781 -0.394359 0 
0.42134 -0.361072 0 0.438195 -0.379833 0 0.446522 -0.351767 0 
0.402356 -0.37309 0 0.486212 -0.393598 0 0.488275 -0.370868 0 
0.464294 -0.366015 0 0.460232 -0.390194 0 0.5125 -0.3625 0 
0.5375 -0.3875 0 0.5375 -0.3625 0 0.5125 -0.3875 0 
-0.5125 -0.3125 0 -0.5375 -0.3375 0 -0.5375 -0.3125 0 
-0.5125 -0.3375 0 -0.45471 -0.346378 0 -0.489653 -0.311165 0 
-0.469724 -0.326909 0 -0.490209 -0.341217 0 -0.453102 -0.307875 0 
-0.41711 -0.338154 0 -0.437797 -0.326938 0 -0.421557 -0.306662 0 
-0.400315 -0.319752 0 -0.361819 -0.312479 0 -0.38439 -0.301007 0 
-0.377665 -0.331355 0 -0.358807 -0.347641 0 -0.393914 -0.349784 0 
-0.318328 -0.306108 0 -0.320879 -0.331582 0 -0.342792 -0.328394 0 
-0.252362 -0.323758 0 -0.294216 -0.307563 0 -0.271139 -0.304567 0 
-0.27381 -0.333102 0 -0.296732 -0.332959 0 -0.20884 -0.302378 0 
-0.210587 -0.32985 0 -0.231923 -0.319287 0 -0.164191 -0.325172 0 
-0.184767 -0.301347 0 -0.187713 -0.326965 0 -0.126157 -0.330381 0 
-0.147948 -0.342047 0 -0.141901 -0.311086 0 -0.107613 -0.321303 0 
-0.0598684 -0.324951 0 -0.0896771 -0.345143 0 -0.083222 -0.321246 0 
-0.037773 -0.32614 0 -0.0164163 -0.323781 0 0.0445526 -0.315143 0 
0.0279088 -0.330048 0 0.00643242 -0.323582 0 0.0956784 -0.333489 0 
0.098365 -0.304018 0 0.0591629 -0.335248 0 0.0775734 -0.318193 0 
0.145148 -0.341631 0 0.12025 -0.342303 0 0.140943 -0.314322 0 
0.118797 -0.31749 0 0.164529 -0.327983 0 0.181896 -0.344779 0 
0.184822 -0.310995 0 0.163703 -0.300934 0 0.219879 -0.346192 0 
0.23954 -0.330716 0 0.221453 -0.314524 0 0.201132 -0.32994 0 
0.289898 -0.303999 0 0.27507 -0.325413 0 0.256027 -0.312129 0 
0.256856 -0.346489 0 0.316775 -0.310768 0 0.30005 -0.329818 0 
0.349223 -0.315268 0 0.329697 -0.331657 0 0.363417 -0.335348 0 
0.382045 -0.320719 0 0.428343 -0.336298 0 0.406257 -0.317328 0 
0.429532 -0.310588 0 0.401947 -0.341913 0 0.467816 -0.337158 0 
0.451997 -0.320972 0 0.466784 -0.30287 0 0.488015 -0.320608 0 
0.48894 -0.346578 0 0.5375 -0.3125 0 0.5375 -0.3375 0 
0.5125 -0.3125 0 0.5125 -0.3375 0 -0.5125 -0.2875 0 
-0.5375 -0.2875 0 -0.5125 -0.2625 0 -0.5375 -0.2625 0 
-0.491047 -0.277762 0 -0.473148 -0.293693 0 -0.477343 -0.258262 0 
-0.45752 -0.272819 0 -0.438602 -0.28808 0 -0.440347 -0.25411 0 
-0.405863 -0.287689 0 -0.421828 -0.269415 0 -0.400748 -0.254472 0 
-0.366646 -0.254779 0 -0.363475 -0.284557 0 -0.385163 -0.272391 0 
-0.322111 -0.27839 0 -0.340689 -0.299234 0 -0.344187 -0.270126 0 
-0.324786 -0.250226 0 -0.301955 -0.255785 0 -0.299102 -0.281968 0 
-0.276751 -0.277874 0 -0.251088 -0.292616 0 -0.256956 -0.26536 0 
-0.235549 -0.262328 0 -0.229382 -0.29157 0 -0.214167 -0.270132 0 
-0.194683 -0.250058 0 -0.162624 -0.296723 0 -0.171426 -0.267734 0 
-0.192405 -0.277833 0 -0.106201 -0.296499 0 -0.127517 -0.264523 0 
-0.105123 -0.27045 0 -0.128414 -0.292868 0 -0.149133 -0.276279 0 
-0.0811247 -0.271136 0 -0.0578769 -0.299002 0 -0.0574449 -0.273007 0 
-0.081906 -0.296175 0 -0.013777 -0.296343 0 -0.0355492 -0.297296 0 
-0.034747 -0.268969 0 -0.012464 -0.269651 0 0.0102442 -0.273065 0 
0.0313653 -0.294879 0 0.00976375 -0.299071 0 0.0309961 -0.262794 0 
0.0493752 -0.27829 0 0.0688686 -0.262525 0 0.0637241 -0.298663 0 
0.0823727 -0.283521 0 0.117855 -0.288693 0 0.140878 -0.288024 0 
0.114344 -0.25065 0 0.101909 -0.27069 0 0.134613 -0.264466 0 
0.183342 -0.253007 0 0.157145 -0.257818 0 0.168485 -0.278732 0 
0.191913 -0.277736 0 0.22041 -0.277824 0 0.203884 -0.297488 0 
0.233084 -0.255399 0 0.207644 -0.254605 0 0.237536 -0.295598 0 
0.261073 -0.252773 0 0.269033 -0.290807 0 0.250461 -0.274044 0 
0.282556 -0.272243 0 0.307932 -0.263806 0 0.335761 -0.295159 0 
0.332974 -0.272193 0 0.307039 -0.286917 0 0.365082 -0.255784 0 
[...]
POINT_DATA 2798
SCALARS id float
LOOKUP_TABLE default
2601 2620 2621 2600 2640 2642 2643 2641 2647 
2646 2644 2645 2649 2648 2650 2651 2652 2653 
2654 2655 2656 2657 2659 2658 2661 2662 2663 
2660 2666 2665 2664 2667 2671 2670 2669 2668 
2672 2673 2674 2675 2677 2679 2676 2681 2680 
2678 2682 2684 2683 2685 2687 2689 2688 2686 
2692 2693 2691 2690 2695 2697 2694 2696 2701 
2699 2698 2700 2702 2705 2703 2704 2709 2706 
2708 2707 2710 2713 2712 2711 2716 2714 2717 
2715 2720 2721 2718 2719 2743 2723 2722 2742 
2602 2603 2622 2623 1661 1678 1697 1660 1715 
1696 1714 1750 1787 1805 1768 1786 1732 1804 
1822 1823 1841 1877 1859 1840 1858 1931 1876 
1913 1895 1894 1912 1967 1930 1949 1966 1985 
2003 1984 1948 2021 2002 2020 2039 2057 2056 
2093 2038 2075 2092 2129 2074 2110 2111 2147 
2165 2128 2146 2184 2183 2202 2164 2182 2201 
2219 2200 2256 2236 2218 2237 2254 2273 2274 
2255 2291 2272 2290 2292 2310 2308 2327 2309 
2328 2345 2344 2346 2364 2326 2362 2380 2363 
2381 2725 2744 2745 2724 2604 2605 2625 2624 
1680 1662 1679 1698 1751 1734 1733 1716 1788 
1769 1806 1824 1825 1843 1842 1860 1878 1861 
1879 1915 1914 1933 1896 1897 1950 1932 1951 
1968 2022 2023 2005 2004 1986 2059 2058 2040 
2094 2077 2095 2076 2130 2149 2148 2113 2112 
2131 2167 2186 2166 2185 2222 2203 2204 2220 
2221 2240 2239 2257 2258 2238 2276 2275 2294 
2295 2293 2278 2312 2329 2311 2313 2296 2330 
2331 2347 2365 2349 2366 2368 2348 2382 2384 
2367 2383 2727 2746 2747 2726 2627 2606 2607 
2626 1717 1681 1699 1663 1718 1752 1735 1753 
1771 1808 1790 1789 1807 1770 1863 1844 1826 
1898 1881 1899 1880 1862 1953 1934 1916 1969 
1970 1952 2024 1987 2006 2042 2078 2041 2060 
2096 2114 2169 2150 2132 2205 2189 2168 2187 
2223 2206 2207 2190 2224 2241 2225 2208 2259 
2260 2243 2242 2280 2279 2261 2277 2298 2297 
2315 2314 2332 2333 2351 2334 2352 2350 2386 
2369 2370 2387 2385 2749 2748 2729 2728 2628 
2608 2629 2609 1664 1700 1682 1719 1736 1737 
1772 1754 1791 1828 1827 1809 1864 1845 1846 
1865 1883 1882 1900 1917 1918 1936 1935 1954 
1972 1988 1989 1971 2043 2026 2044 2025 2007 
2062 2079 2080 2061 2115 2097 2098 2116 2134 
2151 2133 2152 2170 2171 2188 2172 2173 2191 
2139 2155 2156 2157 2140 2174 2209 2227 2226 
2210 2192 2244 2228 2262 2245 2263 2246 2299 
2264 2281 2265 2316 2283 2282 2317 2300 2335 
2336 2353 2318 2354 2389 2388 2371 2750 2751 
2730 2731 2630 2610 2611 2631 1665 1701 1702 
1666 1683 1755 1773 1792 1720 1829 1810 1866 
1848 1847 1919 1902 1920 1901 1884 1956 1937 
1955 1938 1990 1991 1973 2008 2027 2009 2010 
2028 2045 2046 2064 2063 2081 2099 2100 2117 
2082 2135 2118 2136 2154 2137 2153 2120 2121 
2123 2122 2138 2071 2053 2089 2141 2052 2158 
2159 2036 2175 2124 2211 2054 2177 2193 2072 
2194 2229 2230 2125 2212 2247 2284 2266 2248 
2267 2337 2372 2390 2391 2753 2732 2733 2752 
2633 2612 2632 2613 1684 1667 1703 1721 1756 
1774 1738 1811 1830 1793 1812 1849 1813 1867 
1831 1868 1885 1921 1904 1903 1922 1957 1939 
1940 1924 1977 1976 1975 1974 2011 1994 1993 
1992 2029 2047 2030 2012 2101 2066 2065 2083 
2048 2119 2103 2084 2102 2050 2104 2085 2068 
2086 2105 2069 2033 2087 2106 2088 2070 2051 
1857 1839 2000 2176 2035 180 2107 1821 1911 
1893 1946 1929 2018 1581 21 340 2142 2195 
1875 2090 2231 2301 2355 2755 2734 2754 2735 
2635 2634 2615 2614 1668 1669 1685 1722 1775 
1739 1758 1757 1776 1833 1832 1794 1795 1850 
1869 1851 1815 1870 1886 1834 1816 1871 1923 
1852 1817 1887 1958 1941 1835 1905 1959 1925 
1960 2013 1944 1978 1995 1979 2031 1996 2014 
1997 2067 1945 1874 1962 2049 2032 2015 1785 
80 2016 1998 1999 1980 2017 2034 1963 1981 
1982 1964 1803 1928 40 1 1600 1541 1838 
1361 1201 1561 1522 120 140 1481 1461 1521 
1362 1441 1620 2373 2213 280 2756 2737 2736 
2757 2616 2636 2617 2637 1704 1740 1670 1686 
1723 1760 1759 1777 1741 1761 1762 1814 1796 
1778 1726 1691 1779 1780 1727 1674 1797 1745 
1100 1711 1781 1763 1798 1728 1746 1180 1906 
1799 1888 1695 1943 1783 1927 1889 1853 1961 
1942 1890 1909 1926 1801 1856 1908 1837 1748 
1819 1818 1891 1892 1380 1873 1560 1910 1712 
1731 1749 160 1820 1802 1713 1241 1767 1580 
1540 1261 1181 1766 1420 1141 1281 1460 1301 
1161 100 60 1221 20 1122 0 1321 320 
1341 1183 2739 2759 2758 2738 2565 2566 2564 
2567 2571 2569 2570 2568 2572 2573 2574 2575 
2578 2576 2579 2577 2580 2582 2581 2583 2587 
2586 2585 2584 2591 2590 2589 2588 2594 2592 
2595 2593 2599 2598 2597 2596 2618 2639 2619 
2638 1705 1671 1687 1724 1688 1742 1725 1706 
1744 1743 1672 1708 800 1707 1673 2361 1689 
2343 461 2145 1709 1020 1140 1710 1120 762 
1676 1675 1080 2397 820 542 1060 462 900 
761 780 1220 1693 601 482 1764 1160 1907 
1872 1836 1854 1855 1765 1280 1729 1300 1782 
1730 881 1500 1784 1001 1360 1747 802 1040 
1480 1520 1320 861 1440 1041 1400 1101 862 
1081 1102 941 981 1121 1062 1202 1242 1061 
2760 2740 2741 2761 2763 2765 2764 2762 2766 
2768 2767 2769 2772 2770 2771 2773 2774 2777 
2776 2775 2778 2780 2781 2779 2782 2783 2784 
2785 2789 2788 2786 2787 2790 2791 2793 2792 
2795 2797 2796 2794 2250 1303 1283 2214 2215 
1582 2126 300 2161 2251 2303 201 161 2374 
2179 2357 41 2234 2252 2198 2339 2233 2216 
2305 2180 2375 2323 2393 2358 2321 2376 2055 
2304 2287 2359 1983 2163 2360 2109 2235 2270 
2395 640 2394 500 2377 2253 2396 341 2306 
2341 840 2324 2307 2325 2217 2342 2271 2199 
680 2127 2288 421 660 223 362 441 1690 
2378 700 2289 560 860 620 481 2379 561 
422 740 720 442 521 541 501 721 1692 
1800 880 920 1200 1694 443 463 1677 661 
621 722 701 1340 681 641 1240 1260 682 
980 960 703 921 940 801 901 1000 781 
822 742 782 741 783 843 1082 723 942 
803 1142 2285 961 1282 962 1401 1021 2178 
1222 1262 2319 883 1182 1601 1640 2160 1243 
1203 2249 1381 220 2338 2302 1184 260 2392 
1402 1322 1421 1947 1502 240 2320 1204 2143 
1342 1382 2356 2232 1523 1185 1263 1105 1302 
1145 1086 2196 1164 1106 1562 1501 1483 1422 
1482 1544 2108 1264 200 1383 1344 1641 1423 
1602 1563 1564 1463 162 1503 1443 141 61 
2162 81 182 2197 143 42 2037 2268 360 
1622 2019 23 2073 83 1644 163 2001 2286 
2269 2340 1643 22 3 380 2091 440 63 
480 43 460 2322 400 520 44 420 221 
281 261 321 124 241 105 2181 600 580 
302 242 540 282 301 361 263 262 401 
283 244 381 303 363 323 342 264 402 
382 322 383 343 324 364 344 403 522 
404 423 760 483 581 582 702 502 583 
602 563 622 683 543 821 662 544 643 
841 664 623 763 663 743 684 1002 823 
744 804 922 824 882 1043 903 1063 863 
982 923 943 844 1022 1083 1023 1543 1042 
1163 1162 983 963 1103 1044 1123 1003 1223 
1024 1064 1143 1621 181 1124 1004 1542 1144 
1065 985 1104 1084 1026 1046 1085 1066 1125 
1224 1442 1205 1087 1363 1165 1225 1244 1126 
1186 1323 1343 1284 1462 1265 1364 1404 1403 
1365 1385 1304 1384 1325 1345 1366 1424 2144 
1444 1346 1524 121 1642 1464 1405 1583 1545 
1965 142 84 2 103 102 82 1623 122 
101 1565 1604 1605 123 4 104 1624 1585 
64 1625 25 62 5 45 6 144 26 
27 222 65 85 86 66 203 183 164 
204 165 184 146 147 243 166 224 225 
167 205 185 226 206 245 284 186 305 
285 304 325 346 384 365 345 424 405 
385 386 562 425 444 523 503 464 484 
642 524 485 465 504 564 604 603 645 
565 644 584 624 605 665 625 704 585 
764 685 842 724 784 705 902 725 825 
805 785 766 864 786 806 826 904 884 
845 924 865 866 885 905 964 1045 886 
944 925 1025 984 966 946 947 986 1006 
1005 987 967 1047 1068 1027 1067 1088 1108 
1107 1089 1146 1128 1166 1245 1147 1226 1207 
1206 1208 1227 1187 1285 1246 1266 1305 1324 
1267 1306 1286 1307 1367 1326 1386 1387 1406 
1426 1347 1425 1584 1484 1445 1504 1485 1466 
1603 1465 1487 1525 1467 1486 1505 1506 1566 
1526 1546 1645 1547 1567 1586 1646 1606 1626 
24 1647 1648 46 7 1627 28 47 8 
67 106 145 87 202 88 126 107 125 
127 108 148 187 168 227 188 207 266 
265 246 267 286 306 247 326 287 307 
366 367 406 347 327 407 387 426 445 
466 447 446 427 487 505 486 506 525 
467 546 526 545 586 567 566 547 646 
606 626 607 587 627 647 686 687 666 
706 667 765 707 745 726 746 727 747 
788 807 787 767 827 847 808 846 868 
906 887 867 848 926 907 965 945 888 
929 948 910 927 928 1007 969 968 949 
988 989 1028 1009 1008 1069 1048 1049 1029 
1127 1090 1110 1109 1129 1167 1149 1168 1148 
1130 1188 1189 1209 1228 1229 1248 1247 1287 
1269 1268 1288 1249 1289 1327 1308 1329 1309 
1328 1348 1368 1388 1407 1427 1408 1428 1409 
1446 1447 1429 1469 1468 1448 1449 1488 1507 
1508 1509 1489 1527 1529 1548 1528 1588 1568 
1607 1587 1609 1608 1630 1629 1628 1650 9 
10 1649 48 29 50 49 68 70 89 
90 69 129 109 128 110 149 169 190 
189 208 229 228 209 248 268 249 270 
269 288 309 308 289 329 349 348 328 
368 408 388 369 389 409 428 429 468 
469 449 448 488 508 507 527 549 528 
548 568 569 588 608 589 609 629 648 
628 649 669 688 668 689 729 709 728 
708 768 748 749 769 828 789 809 869 
829 849 870 889 890 908 909 930 912 
931 911 951 971 970 950 1011 991 990 
1010 1030 1050 1031 1051 1070 1091 1111 1092 
1112 1071 1151 1132 1150 1131 1169 1170 1190 
1191 1210 1230 1211 1231 1250 1270 1251 1271 
1290 1310 1311 1291 1330 1331 1350 1351 1369 
1349 1370 1389 1390 1431 1410 1411 1430 1470 
1471 1450 1451 1511 1490 1491 1510 1551 1530 
1549 1531 1550 1571 1569 1589 1570 1631 1611 
1610 1590 1652 12 1651 11 30 31 51 
91 71 92 72 111 112 130 131 192 
150 191 151 171 170 210 230 211 231 
251 271 250 291 310 290 311 350 330 
351 331 390 370 391 371 411 430 410 
431 450 471 470 451 490 489 510 509 
550 530 551 529 570 571 591 590 611 
610 631 630 671 651 670 650 690 691 
730 711 710 770 731 751 750 771 791 
811 810 790 831 850 851 830 872 892 
871 891 914 913 933 932 952 972 973 
953 993 992 1013 1012 1032 1052 1053 1033 
1073 1072 1093 1113 1153 1133 1134 1152 1114 
1171 1192 1172 1212 1213 1233 1232 1253 1252 
1273 1272 1293 1292 1312 1313 1353 1333 1352 
1332 1392 1391 1393 1371 1373 1372 1413 1432 
1433 1412 1472 1452 1473 1453 1492 1493 1513 
1512 1532 1552 1553 1533 1591 1593 1592 1573 
1572 1613 1633 1632 1612 13 1653 53 52 
33 32 73 93 113 132 133 153 172 
173 193 152 194 233 212 213 232 273 
252 253 272 313 292 293 312 352 353 
333 332 373 393 372 392 413 412 432 
433 453 472 452 473 493 492 491 512 
511 553 531 532 552 573 592 593 572 
632 633 612 613 653 652 672 673 692 
713 712 693 752 753 732 733 773 772 
812 792 813 793 852 833 853 832 873 
894 893 934 915 955 935 995 975 974 
954 1014 1015 994 1035 1054 1055 1075 1034 
1094 1074 1136 1095 1115 1154 1155 1175 1135 
1174 1195 1193 1215 1194 1173 1214 1235 1234 
1255 1254 1274 1295 1275 1314 1294 1315 1335 
1354 1355 1334 1375 1374 1395 1394 1435 1414 
1434 1415 1455 1475 1454 1474 1515 1514 1494 
1495 1554 1555 1534 1535 1575 1595 1574 1594 
1615 1614 1634 1635 14 1655 15 1654 54 
35 55 34 75 95 74 94 135 115 
114 134 155 154 195 174 175 215 234 
214 235 274 255 254 275 295 294 335 
314 315 355 334 375 354 374 395 394 
414 455 435 434 415 474 475 454 495 
494 513 514 554 555 575 533 534 574 
595 615 594 614 634 655 635 695 675 
674 654 734 694 735 715 714 754 774 
755 775 814 815 794 795 834 835 855 
854 916 875 895 874 976 997 977 956 
996 1016 1037 1017 1057 1056 1077 1036 1097 
1117 1096 1076 1137 1177 1157 1116 1176 1197 
1217 1156 1196 1237 1257 1216 1236 1256 1277 
1296 1276 1317 1297 1337 1316 1377 1357 1336 
1356 1397 1417 1376 1457 1437 1396 1416 1477 
1436 1497 1476 1517 1456 1537 1496 1577 1516 
1557 1617 1556 1536 1597 1576 1657 1596 1637 
1616 1636 37 17 77 1656 57 16 56 
36 76 117 97 96 157 177 137 116 
197 136 217 156 237 196 257 176 236 
216 297 256 277 317 276 296 357 337 
336 377 397 316 356 396 417 376 437 
477 416 457 436 456 497 517 476 496 
557 516 537 597 577 536 535 515 617 
637 576 556 596 677 616 657 656 636 
717 697 696 676 757 737 797 716 777 
736 857 837 817 776 756 816 897 836 
796 877 856 917 876 937 896 936 957 
279 1238 1258 299 1298 339 1278 319 1338 
359 379 1318 419 1378 1358 399 1398 459 
1418 439 1438 1458 499 479 1478 539 519 
1498 579 559 1518 1538 599 619 1558 1578 
639 659 679 1618 1598 719 1658 699 1638 
18 759 739 38 779 799 98 78 58 
118 138 859 839 819 158 899 879 178 
198 919 939 218 979 238 258 959 278 
1019 298 999 338 1039 1059 318 358 378 
1079 1119 398 1099 438 1159 1139 418 1199 
458 478 1179 1239 538 518 498 1219 558 
1279 578 1259 618 598 1299 1319 638 1339 
658 1359 1379 1399 698 678 1439 1419 718 
738 1459 758 778 1479 1519 1499 798 818 
1559 1539 838 858 898 878 1579 1599 918 
1639 938 1619 958 19 978 1659 998 1018 
39 59 1038 1058 99 79 1078 119 139 
1098 1118 1138 159 219 1158 199 179 1178 
239 1218 1198 259 2399 2398 2401 2400 2402 
2404 2403 2405 2407 2409 2406 2408 2412 2413 
2411 2410 2414 2417 2416 2415 2419 2420 2421 
2418 2426 2423 2425 2424 2422 2427 2429 2428 
2430 2431 2434 2433 2432 2435 2438 2436 2437 
2439 2443 2442 2441 2440 2445 2446 2447 2444 
2451 2449 2450 2448 2455 2452 2453 2454 2459 
2458 2456 2457 2463 2461 2460 2462 2466 2467 
2465 2464 2469 2468 2470 2471 2474 2475 2472 
2473 2480 2476 2479 2481 2477 2478 2485 2484 
2483 2482 2487 2488 2489 2486 2493 2492 2490 
2491 2497 2496 2495 2494 2500 2498 2499 2501 
2505 2503 2504 2502 2509 2508 2507 2506 2511 
2510 2513 2512 2516 2514 2515 2517 2518 2519 
2521 2520 2525 2522 2523 2524 2527 2528 2529 
2526 2532 2533 2531 2530 2534 2535 2536 2537 
2538 2539 2542 2543 2540 2541 2544 2545 2546 
2547 2548 2551 2550 2549 2554 2555 2553 2552 
2558 2556 2557 2559 2560 2561 2562 2563 
FIELD FieldData 7
r 3 2798 float
-0.5375 -0.4625 0 -0.5125 -0.4875 0 -0.5125 -0.4625 0 
-0.5375 -0.4875 0 -0.487805 -0.4875 0 -0.463415 -0.4875 0 
-0.463415 -0.4625 0 -0.487805 -0.4625 0 -0.414634 -0.4625 0 
-0.414634 -0.4875 0 -0.439024 -0.4875 0 -0.439024 -0.4625 0 
-0.390244 -0.4625 0 -0.390244 -0.4875 0 -0.365854 -0.4875 0 
-0.365854 -0.4625 0 -0.341463 -0.4875 0 -0.341463 -0.4625 0 
-0.317073 -0.4875 0 -0.317073 -0.4625 0 -0.292683 -0.4875 0 
-0.292683 -0.4625 0 -0.268293 -0.4625 0 -0.268293 -0.4875 0 
-0.243902 -0.4625 0 -0.219512 -0.4875 0 -0.219512 -0.4625 0 
-0.243902 -0.4875 0 -0.170732 -0.4875 0 -0.195122 -0.4625 0 
-0.195122 -0.4875 0 -0.170732 -0.4625 0 -0.121951 -0.4625 0 
-0.121951 -0.4875 0 -0.146341 -0.4625 0 -0.146341 -0.4875 0 
-0.097561 -0.4875 0 -0.097561 -0.4625 0 -0.0731707 -0.4875 0 
-0.0731707 -0.4625 0 -0.0487805 -0.4625 0 -0.0243903 -0.4625 0 
-0.0487805 -0.4875 0 -1.86265e-08 -0.4625 0 -1.86265e-08 -0.4875 0 
-0.0243903 -0.4875 0 0.0243902 -0.4875 0 0.0487805 -0.4875 0 
0.0243902 -0.4625 0 0.0487805 -0.4625 0 0.0731707 -0.4625 0 
0.097561 -0.4625 0 0.097561 -0.4875 0 0.0731707 -0.4875 0 
0.146341 -0.4875 0 0.146341 -0.4625 0 0.121951 -0.4625 0 
0.121951 -0.4875 0 0.170732 -0.4625 0 0.195122 -0.4625 0 
0.170732 -0.4875 0 0.195122 -0.4875 0 0.243902 -0.4625 0 
0.219512 -0.4625 0 0.219512 -0.4875 0 0.243902 -0.4875 0 
0.268293 -0.4875 0 0.292683 -0.4625 0 0.268293 -0.4625 0 
0.292683 -0.4875 0 0.341463 -0.4625 0 0.317073 -0.4875 0 
0.341463 -0.4875 0 0.317073 -0.4625 0 0.365854 -0.4875 0 
0.390244 -0.4625 0 0.390244 -0.4875 0 0.365854 -0.4625 0 
0.439024 -0.4875 0 0.414634 -0.4875 0 0.439024 -0.4625 0 
0.414634 -0.4625 0 0.487805 -0.4875 0 0.487805 -0.4625 0 
0.463415 -0.4875 0 0.463415 -0.4625 0 0.5375 -0.4625 0 
0.5125 -0.4625 0 0.5125 -0.4875 0 0.5375 -0.4875 0 
-0.5375 -0.4375 0 -0.5375 -0.4125 0 -0.5125 -0.4375 0 
-0.5125 -0.4125 0 -0.489136 -0.411685 0 -0.466588 -0.432461 0 
-0.453829 -0.409922 0 -0.487909 -0.43785 0 -0.430826 -0.414293 0 
-0.444688 -0.438839 0 -0.419421 -0.437715 0 -0.404815 -0.413768 0 
-0.382398 -0.406626 0 -0.360342 -0.408751 0 -0.372752 -0.434618 0 
-0.35076 -0.437038 0 -0.394544 -0.437459 0 -0.327741 -0.436536 0 
-0.305478 -0.436106 0 -0.337496 -0.410792 0 -0.314654 -0.408835 0 
-0.26874 -0.410688 0 -0.291757 -0.410407 0 -0.282717 -0.437194 0 
-0.259783 -0.436297 0 -0.202773 -0.410174 0 -0.238508 -0.434785 0 
-0.225075 -0.407818 0 -0.246589 -0.406223 0 -0.216951 -0.436136 0 
-0.194339 -0.437394 0 -0.158819 -0.404503 0 -0.170668 -0.436714 0 
-0.179698 -0.412202 0 -0.126951 -0.437774 0 -0.137441 -0.410629 0 
-0.113986 -0.412743 0 -0.102991 -0.43765 0 -0.149553 -0.434806 0 
-0.0915677 -0.408065 0 -0.0812793 -0.433636 0 -0.0607605 -0.436023 0 
-0.0713432 -0.40213 0 -0.0512686 -0.412232 0 -0.0173667 -0.431497 0 
-0.00734848 -0.40515 0 -0.0371811 -0.438408 0 -0.0303633 -0.406162 0 
0.0247032 -0.435216 0 0.0361727 -0.410238 0 0.00289441 -0.436924 0 
0.0472945 -0.438333 0 0.0134979 -0.408238 0 0.0586201 -0.409208 0 
0.0953674 -0.414315 0 0.0688525 -0.432834 0 0.0899389 -0.437586 0 
0.115475 -0.405695 0 0.131684 -0.426612 0 0.142764 -0.403934 0 
0.114725 -0.439356 0 0.150934 -0.440372 0 0.163551 -0.419485 0 
0.191997 -0.416701 0 0.180377 -0.43903 0 0.233285 -0.401893 0 
0.237674 -0.440138 0 0.208017 -0.439583 0 0.219821 -0.419911 0 
0.269097 -0.440415 0 0.285179 -0.424302 0 0.267057 -0.405042 0 
0.251302 -0.421854 0 0.320849 -0.426346 0 0.302962 -0.441398 0 
0.338903 -0.440417 0 0.303008 -0.408265 0 0.334809 -0.404983 0 
0.36938 -0.440239 0 0.384709 -0.422626 0 0.353774 -0.420614 0 
0.368616 -0.401582 0 0.419126 -0.426311 0 0.437186 -0.43937 0 
0.400872 -0.406298 0 0.438493 -0.410232 0 0.401634 -0.441088 0 
0.46206 -0.437661 0 0.487735 -0.439016 0 0.461324 -0.414526 0 
0.48749 -0.41572 0 0.5125 -0.4125 0 0.5375 -0.4375 0 
0.5375 -0.4125 0 0.5125 -0.4375 0 -0.5375 -0.3875 0 
-0.5375 -0.3625 0 -0.5125 -0.3625 0 -0.5125 -0.3875 0 
-0.478103 -0.360125 0 -0.490819 -0.379737 0 -0.47234 -0.396539 0 
-0.458078 -0.374739 0 -0.411438 -0.366516 0 -0.434298 -0.35908 0 
-0.415448 -0.391 0 -0.43854 -0.386504 0 -0.374858 -0.365966 0 
-0.390474 -0.383789 0 -0.359639 -0.383152 0 -0.336224 -0.384196 0 
-0.339586 -0.359379 0 -0.316443 -0.356613 0 -0.312422 -0.382852 0 
-0.288319 -0.384784 0 -0.264504 -0.383726 0 -0.292504 -0.359359 0 
-0.268403 -0.358349 0 -0.224579 -0.350487 0 -0.220852 -0.381177 0 
-0.203226 -0.359936 0 -0.242079 -0.377163 0 -0.246176 -0.350112 0 
-0.175043 -0.382744 0 -0.196627 -0.384915 0 -0.182912 -0.351124 0 
-0.162627 -0.360764 0 -0.101642 -0.382874 0 -0.109584 -0.354526 0 
-0.130475 -0.360575 0 -0.123619 -0.386846 0 -0.147174 -0.380724 0 
-0.0654695 -0.350371 0 -0.0614402 -0.379354 0 -0.0832455 -0.3718 0 
-0.0171223 -0.37821 0 -0.0432621 -0.354205 0 -0.0210113 -0.351768 0 
-0.0397708 -0.381557 0 0.0268067 -0.382796 0 0.0468033 -0.354837 0 
0.0490465 -0.382829 0 0.00137133 -0.350257 0 0.00492739 -0.378043 0 
0.0243301 -0.355566 0 0.0691626 -0.372213 0 0.0786545 -0.35153 0 
0.0778944 -0.398449 0 0.0950048 -0.381827 0 0.133791 -0.364799 0 
0.121202 -0.383678 0 0.103738 -0.36049 0 0.17331 -0.397262 0 
0.15194 -0.382476 0 0.163133 -0.360729 0 0.183683 -0.376796 0 
0.21923 -0.379418 0 0.20125 -0.361845 0 0.203271 -0.396224 0 
0.237834 -0.363167 0 0.249732 -0.385665 0 0.267669 -0.370619 0 
0.297738 -0.37014 0 0.284715 -0.390341 0 0.282495 -0.350048 0 
0.329871 -0.369318 0 0.349345 -0.385146 0 0.316023 -0.388517 0 
0.344761 -0.350671 0 0.312737 -0.350915 0 0.364641 -0.366944 0 
0.382694 -0.35257 0 0.384145 -0.384921 0 0.419781 -0.394359 0 
0.42134 -0.361072 0 0.438195 -0.379833 0 0.446522 -0.351767 0 
0.402356 -0.37309 0 0.486212 -0.393598 0 0.488275 -0.370868 0 
0.464294 -0.366015 0 0.460232 -0.390194 0 0.5125 -0.3625 0 
0.5375 -0.3875 0 0.5375 -0.3625 0 0.5125 -0.3875 0 
-0.5125 -0.3125 0 -0.5375 -0.3375 0 -0.5375 -0.3125 0 
-0.5125 -0.3375 0 -0.45471 -0.346378 0 -0.489653 -0.311165 0 
-0.469724 -0.326909 0 -0.490209 -0.341217 0 -0.453102 -0.307875 0 
-0.41711 -0.338154 0 -0.437797 -0.326938 0 -0.421557 -0.306662 0 
-0.400315 -0.319752 0 -0.361819 -0.312479 0 -0.38439 -0.301007 0 
-0.377665 -0.331355 0 -0.358807 -0.347641 0 -0.393914 -0.349784 0 
-0.318328 -0.306108 0 -0.320879 -0.331582 0 -0.342792 -0.328394 0 
-0.252362 -0.323758 0 -0.294216 -0.307563 0 -0.271139 -0.304567 0 
-0.27381 -0.333102 0 -0.296732 -0.332959 0 -0.20884 -0.302378 0 
-0.210587 -0.32985 0 -0.231923 -0.319287 0 -0.164191 -0.325172 0 
-0.184767 -0.301347 0 -0.187713 -0.326965 0 -0.126157 -0.330381 0 
-0.147948 -0.342047 0 -0.141901 -0.311086 0 -0.107613 -0.321303 0 
-0.0598684 -0.324951 0 -0.0896771 -0.345143 0 -0.083222 -0.321246 0 
-0.037773 -0.32614 0 -0.0164163 -0.323781 0 0.0445526 -0.315143 0 