# vtk DataFile Version 4.0
vtk output
ASCII
DATASET POLYDATA
FIELD FieldData 4
domain 1 3 string
domain_min:-20|-15
domain_max:20|15
cell_size:0.05

variables 1 2 string
dt:0.000372678
T:0.472938

constants 1 10 string
xsize:2
ysize:1
csize:0.05
dx:0.0238095
h:0.025
rho0:1000
mass:0.566894
g:1|0
c:13.4164
CFL:0.2

functions 1 8 string
time:T=(T+dt)
continuity:rho_dot=((-(rho*sph_D00(v,mass,rho,Wp52220)))+(((0.1*c)*h)*sph_L00(rho,mass,rho,Wp52220)))
irho:rho=(rho+int1((rho_dot,dt))
EOS:p=(((c^2)*(rho-rho0))+10000)
euler:a=if((gid,(0*v),(((-((1/rho)*sph_G11(p,mass,rho,Wp52220)))+(0.01*sph_L00(v,mass,rho,Wp52220)))+g))
vel:v=(v+int1((a,dt))
pos:r=(r+int1((v,dt))
new_dt:dt=(CFL*min((sqrt(((h/fmax(magnitude((a)))),(h/c)))

POINTS 2798 float
-0.5375 -0.4625 0 -0.5125 -0.4875 0 -0.5125 -0.4625 0 
-0.5375 -0.4875 0 -0.487805 -0.4875 0 -0.463415 -0.4875 0 
-0.463415 -0.4625 0 -0.487805 -0.4625 0 -0.439024 -0.4875 0 
-0.414634 -0.4625 0 -0.439024 -0.4625 0 -0.414634 -0.4875 0 
-0.390244 -0.4625 0 -0.365854 -0.4875 0 -0.390244 -0.4875 0 
-0.365854 -0.4625 0 -0.317073 -0.4625 0 -0.341463 -0.4625 0 
-0.317073 -0.4875 0 -0.341463 -0.4875 0 -0.268293 -0.4875 0 
-0.292683 -0.4875 0 -0.268293 -0.4625 0 -0.292683 -0.4625 0 
-0.243902 -0.4875 0 -0.243902 -0.4625 0 -0.219512 -0.4625 0 
-0.219512 -0.4875 0 -0.170732 -0.4625 0 -0.195122 -0.4875 0 
-0.170732 -0.4875 0 -0.195122 -0.4625 0 -0.121951 -0.4875 0 
-0.146341 -0.4625 0 -0.146341 -0.4875 0 -0.121951 -0.4625 0 
-0.097561 -0.4625 0 -0.0731707 -0.4625 0 -0.0731707 -0.4875 0 
-0.097561 -0.4875 0 -0.0243903 -0.4625 0 -0.0487805 -0.4625 0 
-1.86265e-08 -0.4625 0 -1.86265e-08 -0.4875 0 -0.0487805 -0.4875 0 
-0.0243903 -0.4875 0 0.0243902 -0.4625 0 0.0487805 -0.4875 0 
0.0243902 -0.4875 0 0.0487805 -0.4625 0 0.097561 -0.4875 0 
0.097561 -0.4625 0 0.0731707 -0.4625 0 0.0731707 -0.4875 0 
0.121951 -0.4625 0 0.121951 -0.4875 0 0.146341 -0.4875 0 
0.146341 -0.4625 0 0.170732 -0.4625 0 0.170732 -0.4875 0 
0.195122 -0.4625 0 0.195122 -0.4875 0 0.243902 -0.4875 0 
0.219512 -0.4625 0 0.219512 -0.4875 0 0.243902 -0.4625 0 
0.292683 -0.4875 0 0.268293 -0.4625 0 0.268293 -0.4875 0 
0.292683 -0.4625 0 0.317073 -0.4875 0 0.341463 -0.4875 0 
0.341463 -0.4625 0 0.317073 -0.4625 0 0.390244 -0.4625 0 
0.365854 -0.4625 0 0.390244 -0.4875 0 0.365854 -0.4875 0 
0.439024 -0.4625 0 0.439024 -0.4875 0 0.414634 -0.4625 0 
0.414634 -0.4875 0 0.463415 -0.4875 0 0.463415 -0.4625 0 
0.487805 -0.4875 0 0.487805 -0.4625 0 0.5125 -0.4875 0 
0.5375 -0.4625 0 0.5125 -0.4625 0 0.5375 -0.4875 0 
-0.5125 -0.4125 0 -0.5375 -0.4375 0 -0.5375 -0.4125 0 
-0.5125 -0.4375 0 -0.464252 -0.410685 0 -0.488011 -0.41247 0 
-0.48785 -0.43754 0 -0.463777 -0.436903 0 -0.416798 -0.437119 0 
-0.441279 -0.410277 0 -0.418052 -0.411216 0 -0.44038 -0.436741 0 
-0.394531 -0.411509 0 -0.370777 -0.411968 0 -0.368905 -0.437399 0 
-0.39295 -0.437213 0 -0.320904 -0.437234 0 -0.3232 -0.41162 0 
-0.346939 -0.411849 0 -0.344804 -0.437341 0 -0.250039 -0.413069 0 
-0.296792 -0.43754 0 -0.299172 -0.412428 0 -0.272312 -0.437667 0 
-0.274715 -0.412887 0 -0.22304 -0.437789 0 -0.247706 -0.437719 0 
-0.225188 -0.413305 0 -0.200177 -0.4133 0 -0.198351 -0.437734 0 
-0.173388 -0.438022 0 -0.174829 -0.414081 0 -0.148116 -0.438087 0 
-0.123527 -0.413801 0 -0.12298 -0.437911 0 -0.149115 -0.414327 0 
-0.0981978 -0.437734 0 -0.0983073 -0.41338 0 -0.0732647 -0.438017 0 
-0.0729549 -0.414101 0 -0.04805 -0.438015 0 -0.0472751 -0.414185 0 
-0.0230138 -0.437812 0 -0.0217596 -0.413561 0 0.00166553 -0.437642 0 
0.0281442 -0.413448 0 0.00327422 -0.413069 0 0.0263158 -0.437819 0 
0.0510782 -0.43774 0 0.0757383 -0.437747 0 0.0780548 -0.413246 0 
0.0531516 -0.413298 0 0.124999 -0.437772 0 0.149655 -0.437833 0 
0.100375 -0.437749 0 0.102917 -0.41325 0 0.127788 -0.413276 0 
0.177429 -0.413399 0 0.174358 -0.437852 0 0.199039 -0.437847 0 
0.152613 -0.413376 0 0.248247 -0.437819 0 0.202205 -0.413333 0 
0.223672 -0.437839 0 0.226881 -0.413245 0 0.251458 -0.413153 0 
0.272765 -0.437795 0 0.297296 -0.437842 0 0.275977 -0.413117 0 
0.348885 -0.412423 0 0.346166 -0.437654 0 0.324873 -0.413009 0 
0.321837 -0.437844 0 0.30049 -0.413202 0 0.370279 -0.437637 0 
0.396179 -0.411815 0 0.372652 -0.412319 0 0.394259 -0.437575 0 
0.441191 -0.410348 0 0.418962 -0.409743 0 0.417486 -0.436683 0 
0.44024 -0.436917 0 0.464353 -0.41295 0 0.463941 -0.437889 0 
0.48847 -0.438144 0 0.488403 -0.413305 0 0.5125 -0.4125 0 
0.5375 -0.4125 0 0.5125 -0.4375 0 0.5375 -0.4375 0 
-0.5375 -0.3625 0 -0.5125 -0.3625 0 -0.5375 -0.3875 0 
-0.5125 -0.3875 0 -0.464463 -0.38405 0 -0.487942 -0.361971 0 
-0.488011 -0.387205 0 -0.464491 -0.357003 0 -0.442024 -0.356418 0 
-0.441767 -0.383452 0 -0.418742 -0.385021 0 -0.419123 -0.358669 0 
-0.395886 -0.359298 0 -0.395409 -0.385494 0 -0.372413 -0.360474 0 
-0.37184 -0.386282 0 -0.300357 -0.387285 0 -0.348145 -0.386144 0 
-0.324966 -0.360348 0 -0.3008 -0.362206 0 -0.324438 -0.385942 0 
-0.348765 -0.360374 0 -0.25117 -0.388488 0 -0.275874 -0.388074 0 
-0.25153 -0.363989 0 -0.276301 -0.363269 0 -0.200809 -0.389176 0 
-0.200602 -0.365361 0 -0.226141 -0.389055 0 -0.226282 -0.365078 0 
-0.17469 -0.367024 0 -0.175157 -0.390429 0 -0.123265 -0.390009 0 
-0.149166 -0.390876 0 -0.122392 -0.366436 0 -0.148493 -0.367638 0 
-0.0976965 -0.389381 0 -0.0720107 -0.39054 0 -0.0965325 -0.365679 0 
-0.0705649 -0.36731 0 -0.0459453 -0.39073 0 -0.0199743 -0.389641 0 
-0.0177123 -0.36603 0 -0.0441198 -0.367675 0 0.0078551 -0.364345 0 
0.0328387 -0.365178 0 0.0303439 -0.389242 0 0.00535709 -0.388667 0 
0.0806679 -0.388907 0 0.0835562 -0.364695 0 0.0555511 -0.389049 0 
0.0582316 -0.365039 0 0.130768 -0.388943 0 0.108624 -0.364773 0 
0.133703 -0.364704 0 0.105702 -0.388963 0 0.183377 -0.364276 0 
0.155692 -0.388951 0 0.18046 -0.38892 0 0.158677 -0.36449 0 
0.229756 -0.388589 0 0.207942 -0.364073 0 0.232481 -0.363844 0 
0.205146 -0.388772 0 0.254288 -0.388434 0 0.256979 -0.36365 0 
0.278764 -0.388369 0 0.28136 -0.363479 0 0.305474 -0.363166 0 
0.327172 -0.387754 0 0.303125 -0.388363 0 0.329127 -0.361987 0 
0.35237 -0.360653 0 0.374201 -0.386654 0 0.398667 -0.359098 0 
0.37558 -0.360723 0 0.39749 -0.385617 0 0.350767 -0.386734 0 
0.420994 -0.354752 0 0.44271 -0.35539 0 0.44192 -0.383096 0 
0.420058 -0.3824 0 0.488393 -0.363283 0 0.464578 -0.387498 0 
0.488442 -0.388336 0 0.464821 -0.361552 0 0.5375 -0.3625 0 
0.5125 -0.3625 0 0.5375 -0.3875 0 0.5125 -0.3875 0 
-0.5125 -0.3375 0 -0.5125 -0.3125 0 -0.5375 -0.3375 0 
-0.5375 -0.3125 0 -0.464556 -0.329626 0 -0.487873 -0.336866 0 
-0.487894 -0.311775 0 -0.464804 -0.3021 0 -0.442158 -0.329295 0 
-0.41957 -0.305528 0 -0.41935 -0.332201 0 -0.442306 -0.302241 0 
-0.372697 -0.334621 0 -0.396181 -0.333054 0 -0.396488 -0.30683 0 
-0.372955 -0.308817 0 -0.349191 -0.308996 0 -0.34903 -0.334628 0 
-0.301 -0.312048 0 -0.325108 -0.334916 0 -0.300882 -0.337171 0 
-0.32515 -0.30957 0 -0.251554 -0.339642 0 -0.27641 -0.33847 0 
-0.251691 -0.315424 0 -0.276603 -0.313644 0 -0.200046 -0.341816 0 
-0.225977 -0.318018 0 -0.226045 -0.341416 0 -0.173911 -0.343804 0 
-0.199764 -0.318458 0 -0.173474 -0.320665 0 -0.147177 -0.321366 0 
-0.121432 -0.343007 0 -0.120923 -0.319736 0 -0.147621 -0.344489 0 
-0.0690721 -0.344364 0 -0.0681057 -0.321632 0 -0.0946051 -0.319016 0 
-0.0953256 -0.34224 0 -0.0138508 -0.319712 0 -0.0154787 -0.34269 0 
-0.0410479 -0.322609 0 -0.0400808 -0.300494 0 -0.0422885 -0.344975 0 
0.0103355 -0.340006 0 0.0374842 -0.317187 0 0.035315 -0.341195 0 
0.0124027 -0.315807 0 0.0884071 -0.316486 0 0.060788 -0.341248 0 
0.0862995 -0.340552 0 0.0628531 -0.317562 0 0.138326 -0.315889 0 
0.11134 -0.340482 0 0.11353 -0.316087 0 0.136242 -0.340397 0 
0.185872 -0.339572 0 0.163106 -0.315482 0 0.187937 -0.314947 0 
0.16113 -0.339999 0 0.210473 -0.339326 0 0.237409 -0.314318 0 
0.235057 -0.339082 0 0.21272 -0.314706 0 0.259506 -0.338766 0 
0.261777 -0.313693 0 0.283694 -0.338333 0 0.28571 -0.31286 0 
0.309233 -0.311645 0 0.307515 -0.337585 0 0.33225 -0.30921 0 
0.330843 -0.335756 0 0.399751 -0.332205 0 0.355045 -0.307832 0 
0.378056 -0.308388 0 0.353819 -0.334325 0 0.37689 -0.334616 0 
0.421833 -0.326951 0 0.400579 -0.304754 0 0.443601 -0.327477 0 
0.488333 -0.313159 0 0.465124 -0.334817 0 0.488337 -0.338234 0 
0.465683 -0.307194 0 0.5125 -0.3375 0 0.5125 -0.3125 0 
0.5375 -0.3125 0 0.5375 -0.3375 0 -0.5125 -0.2625 0 
-0.5125 -0.2875 0 -0.5375 -0.2625 0 -0.5375 -0.2875 0 
-0.488041 -0.286496 0 -0.48821 -0.260929 0 -0.465217 -0.274531 0 
-0.41969 -0.252194 0 -0.442613 -0.275396 0 -0.419698 -0.27869 0 
-0.373105 -0.28309 0 -0.396638 -0.280632 0 -0.372918 -0.257427 0 
-0.396422 -0.254441 0 -0.348969 -0.258157 0 -0.325122 -0.284243 0 
-0.300895 -0.261462 0 -0.324894 -0.25885 0 -0.301075 -0.286795 0 
-0.349202 -0.283511 0 -0.276386 -0.264266 0 -0.27669 -0.288859 0 
-0.251666 -0.291322 0 -0.251191 -0.267363 0 -0.225318 -0.271806 0 
-0.225854 -0.294824 0 -0.172541 -0.274591 0 -0.198855 -0.27196 0 
-0.199498 -0.295208 0 -0.173157 -0.297575 0 -0.171627 -0.251707 0 
-0.146017 -0.275235 0 -0.1468 -0.298232 0 -0.120392 -0.296605 0 
-0.118213 -0.250933 0 -0.145033 -0.252307 0 -0.119399 -0.273725 0 
-0.0672693 -0.299021 0 -0.0925594 -0.273073 0 -0.0938423 -0.295975 0 
-0.0647152 -0.254041 0 -0.0914677 -0.250336 0 -0.0659424 -0.276487 0 
-0.0125201 -0.297126 0 -0.0110946 -0.274705 0 -0.0376009 -0.256506 0 
-0.0387039 -0.278573 0 -0.0105437 -0.252224 0 0.0395351 -0.293127 0 
0.0141751 -0.291931 0 0.0156694 -0.268322 0 0.0414079 -0.269277 0 
0.0925876 -0.268235 0 0.0902714 -0.292426 0 0.067099 -0.270072 0 
0.0647917 -0.293777 0 0.140403 -0.291327 0 0.142973 -0.266887 0 
0.117777 -0.267586 0 0.115462 -0.291755 0 0.193361 -0.266272 0 
0.165247 -0.291007 0 0.19023 -0.290473 0 0.168007 -0.266704 0 
0.242874 -0.264308 0 0.215189 -0.290215 0 0.218509 -0.265739 0 
0.239917 -0.289512 0 0.287706 -0.287063 0 0.266559 -0.262506 0 
0.264071 -0.288323 0 0.289809 -0.260847 0 0.310907 -0.285302 0 
0.333572 -0.282282 0 0.31266 -0.258522 0 0.335134 -0.255166 0 
[...]
POINT_DATA 2798
SCALARS id float
LOOKUP_TABLE default
2601 2620 2621 2600 2640 2642 2643 2641 2644 
2647 2645 2646 2649 2650 2648 2651 2655 2653 
2654 2652 2658 2656 2659 2657 2660 2661 2663 
2662 2667 2664 2666 2665 2670 2669 2668 2671 
2673 2675 2674 2672 2679 2677 2681 2680 2676 
2678 2683 2684 2682 2685 2688 2689 2687 2686 
2691 2690 2692 2693 2695 2694 2697 2696 2700 
2699 2698 2701 2704 2703 2702 2705 2706 2708 
2709 2707 2713 2711 2712 2710 2717 2716 2715 
2714 2718 2719 2720 2721 2722 2743 2723 2742 
2623 2602 2603 2622 1679 1661 1660 1678 1714 
1697 1715 1696 1733 1751 1750 1732 1786 1787 
1769 1768 1841 1804 1805 1822 1823 1858 1840 
1859 1877 1876 1894 1895 1912 1931 1930 1913 
1948 1949 1966 1967 1984 1985 2002 2003 2020 
2039 2021 2038 2056 2074 2075 2057 2110 2128 
2092 2093 2111 2147 2146 2164 2129 2200 2165 
2182 2183 2201 2218 2236 2219 2273 2272 2255 
2254 2237 2290 2309 2291 2308 2345 2327 2326 
2344 2363 2362 2380 2381 2725 2745 2724 2744 
2605 2625 2604 2624 1680 1663 1662 1681 1699 
1698 1716 1717 1735 1734 1753 1752 1806 1770 
1789 1807 1788 1771 1842 1824 1843 1825 1878 
1879 1860 1861 1897 1896 1932 1914 1933 1915 
1950 1968 1951 1969 1986 2004 2005 1987 2023 
2041 2040 2022 2076 2077 2058 2059 2112 2095 
2113 2094 2149 2130 2148 2131 2184 2167 2185 
2166 2202 2203 2220 2221 2239 2256 2238 2257 
2275 2292 2311 2293 2310 2274 2329 2347 2346 
2328 2383 2364 2382 2365 2747 2727 2746 2726 
2626 2627 2606 2607 1682 1664 1665 1683 1700 
1719 1718 1701 1754 1736 1737 1755 1773 1772 
1809 1790 1808 1791 1844 1826 1845 1827 1880 
1863 1862 1898 1881 1899 1917 1934 1935 1916 
1970 1971 1953 1952 2007 2006 1989 1990 1988 
2024 2043 2042 2025 2079 2060 2078 2061 2115 
2096 2097 2114 2150 2133 2151 2132 2168 2187 
2186 2169 2204 2205 2222 2223 2241 2240 2259 
2258 2312 2277 2295 2276 2294 2330 2313 2348 
2385 2366 2384 2367 2728 2729 2749 2748 2629 
2628 2609 2608 1666 1667 1684 1721 1702 1720 
1756 1738 1757 1739 1775 1792 1811 1793 1810 
1774 1829 1828 1846 1847 1865 1864 1901 1883 
1882 1900 1902 1919 1918 1936 1938 1920 1937 
1972 1955 1954 1974 1956 1973 2008 2009 1992 
1991 2010 2044 2026 2027 2045 2081 2080 2063 
2062 2116 2117 2099 2098 2153 2134 2152 2135 
2189 2170 2171 2188 2224 2207 2206 2225 2242 
2260 2243 2261 2297 2296 2279 2278 2349 2350 
2331 2332 2314 2368 2386 2387 2751 2731 2750 
2730 2610 2611 2630 2631 1685 1668 1686 1669 
1723 1704 1703 1722 1759 1758 1740 1741 1795 
1794 1813 1812 1776 1777 1831 1830 1848 1867 
1849 1868 1866 1885 1886 1884 1904 1903 1921 
1940 1939 1922 1975 1957 1976 1958 1994 2011 
1993 2012 2029 2047 2028 2046 2082 2083 2066 
2065 2064 2100 2101 2118 2136 2119 2154 2137 
2173 2172 2190 2191 2155 2209 2226 2227 2208 
2244 2262 2263 2245 2281 2280 2298 2351 2334 
2316 2315 2333 2389 2369 2370 2388 2352 2753 
2733 2732 2752 2633 2613 2632 2612 1670 1671 
1687 1688 1706 1705 1724 1725 1743 1761 1742 
1760 1797 1796 1815 1779 1814 1778 1832 1851 
1833 1850 1887 1869 1870 1906 1888 1905 1924 
1942 1923 1941 1978 1996 1959 1977 1995 2014 
1997 2013 2048 2030 2032 2049 2031 2067 2050 
2084 2068 2085 2102 2086 2104 2103 2138 2121 
2120 2139 2174 2156 2157 2175 2193 2211 2192 
2210 2228 2264 2246 2229 2300 2282 2299 2317 
2318 2336 2335 2354 2353 2371 2372 2390 2734 
2735 2755 2754 2614 2615 2634 2635 1690 1672 
1689 1673 1708 1707 1726 1762 1763 1744 1798 
1817 1780 1781 1854 1835 1852 1816 1834 1871 
1853 1872 1908 1907 1889 1890 1926 1943 1925 
1927 1979 1961 1960 1962 1944 1980 1999 1998 
2016 2015 2033 2017 2052 2034 2070 2069 2051 
2105 2088 2087 2106 2140 2141 2122 2123 2158 
2159 2176 2177 2195 2212 2213 2194 2231 2248 
2230 2247 2302 2284 2301 2283 2265 2266 2320 
2338 2337 2319 2391 2355 2373 2356 2737 2757 
2756 2736 2617 2636 2637 2616 1691 1675 1674 
1727 1729 1728 1710 1709 1765 1745 1764 1746 
1747 1799 1783 1784 1782 1801 1818 1800 1767 
1837 1819 1855 1836 1856 1873 1785 1891 1803 
1874 1909 1892 1928 1910 1839 1945 1838 1857 
1981 1963 1946 1964 1893 1982 2000 1911 1929 
2053 2035 2036 2071 2072 2054 2089 2107 2124 
2125 2178 2142 2143 2179 2161 2160 2196 2215 
2197 2214 2249 2232 2233 2303 2268 2285 2267 
2250 2286 2321 2304 2339 2374 2393 2392 2357 
2759 2738 2739 2758 2567 2566 2565 2564 2568 
2571 2570 2569 2573 2572 2574 2575 2577 2579 
2576 2578 2582 2580 2583 2581 2585 2586 2584 
2587 2589 2591 2588 2590 2592 2595 2594 2593 
2596 2598 2597 2599 2619 2639 2638 2618 1693 
1692 1676 1677 1694 1695 1711 1730 1560 1712 
1748 1713 1766 1580 1731 20 1620 1749 60 
1521 1802 40 80 1561 1541 1820 100 140 
120 1581 160 180 1 240 1821 200 21 
220 260 1875 320 2018 300 161 280 162 
181 201 340 1965 1983 2108 2090 1947 2126 
2001 2144 2019 2180 2037 2162 2073 2216 2198 
2055 2269 2251 2234 2252 2322 2305 2270 2287 
2288 2394 2375 2340 2740 2760 2741 2761 2765 
2763 2764 2762 2769 2766 2767 2768 2771 2773 
2772 2770 2777 2774 2775 2776 2779 2780 2778 
2781 2784 2783 2785 2782 2789 2786 2788 2787 
2790 2793 2792 2791 2797 2795 2794 2796 940 
1120 960 1100 1140 980 1000 941 1160 1001 
1180 1220 1200 1040 1041 1061 1240 1081 1002 
1260 1101 1280 1062 1141 1320 1121 1300 1360 
1340 1161 1181 1400 1380 1201 1420 1221 1241 
1440 1480 1261 1460 1281 1500 1321 1301 1520 
1361 1540 1341 1600 1381 1401 1362 1421 1402 
1441 1640 1382 1461 0 1481 1442 1501 1522 
1502 1462 1482 1542 1562 1543 1601 1563 1602 
1621 1641 1582 1622 1642 41 2 101 61 
42 22 81 82 102 121 62 83 122 
142 141 182 360 163 143 221 380 241 
400 420 440 281 261 301 460 480 341 
321 2091 500 2109 520 2145 2127 540 2358 
2323 2163 2306 2324 2376 2341 2181 2217 2359 
2199 2395 2342 2235 2360 2253 2377 680 700 
2396 2307 740 2271 840 2378 2325 800 2343 
2289 2361 701 761 2379 721 820 860 2397 
1020 880 900 920 1060 1080 821 802 803 
841 861 822 823 881 862 901 842 843 
863 882 921 883 902 961 922 942 903 
982 983 981 962 1022 1021 1042 1003 1023 
1043 1082 1102 1063 1122 1142 1084 1103 1104 
1083 1064 1143 1162 1123 1124 1144 1163 1202 
1184 1183 1182 1164 1223 1204 1222 1242 1203 
1262 1263 1243 1244 1302 1282 1283 1303 1342 
1343 1323 1322 1363 1384 1383 1403 1443 1422 
1444 1423 1483 1484 1463 1503 1523 1524 1504 
1544 1545 1564 1584 1583 1603 1623 1624 1604 
1643 1644 23 4 3 24 44 63 43 
64 104 85 84 103 123 124 144 145 
202 183 203 184 164 223 242 204 222 
243 262 263 282 283 322 302 303 381 
361 342 323 362 580 401 382 560 422 
421 600 402 441 462 481 620 442 461 
640 501 482 521 660 541 542 522 561 
581 720 562 601 641 621 602 760 622 
642 780 662 681 661 702 722 682 741 
781 762 703 782 801 783 742 763 805 
804 785 784 845 825 844 824 885 884 
865 864 905 904 924 923 943 944 965 
963 964 985 1005 984 1004 1024 1045 1025 
1044 1065 1085 1126 1125 1105 1106 1145 1165 
1166 1146 1185 1225 1205 1224 1265 1264 1245 
1304 1305 1284 1285 1344 1325 1345 1324 1365 
1364 1385 1404 1424 1405 1425 1464 1486 1485 
1445 1465 1506 1525 1526 1505 1566 1585 1565 
1546 1586 1605 1625 1606 1626 5 1645 1646 
6 45 25 26 46 86 65 105 66 
146 125 126 106 166 165 186 185 206 
225 224 226 205 265 244 264 245 284 
304 285 305 344 324 343 325 363 384 
383 364 423 403 424 404 444 463 464 
443 503 483 502 484 524 504 543 523 
582 564 563 544 603 583 604 584 643 
623 624 644 684 663 664 683 704 724 
723 743 744 745 765 764 807 806 787 
786 826 847 827 846 886 866 867 887 
906 925 926 927 907 945 946 966 947 
967 986 1006 1007 987 1026 1047 1046 1027 
1067 1087 1086 1066 1127 1107 1147 1167 1148 
1186 1226 1187 1227 1206 1207 1266 1246 1247 
1267 1306 1286 1287 1307 1347 1346 1326 1327 
1366 1367 1387 1386 1427 1407 1406 1426 1446 
1466 1467 1447 1487 1507 1527 1548 1568 1547 
1567 1587 1588 1608 1607 1627 1647 1648 1628 
7 8 47 48 27 28 68 88 87 
67 128 107 127 108 147 168 167 187 
148 227 208 207 188 228 247 246 267 
266 307 286 287 306 346 327 345 326 
365 386 385 366 426 406 405 425 465 
445 446 466 485 486 506 505 525 526 
566 565 546 545 585 586 606 605 646 
645 626 625 686 666 665 685 725 727 
705 707 726 706 747 746 767 766 788 
809 808 789 828 829 848 849 888 869 
889 868 929 928 909 908 948 949 968 
969 988 1008 989 1009 1048 1029 1028 1049 
1089 1069 1068 1088 1108 1109 1128 1129 1149 
1169 1168 1188 1189 1228 1208 1209 1248 1249 
1268 1229 1269 1288 1309 1308 1289 1329 1328 
1349 1348 1369 1368 1389 1388 1409 1429 1428 
1408 1449 1468 1469 1448 1489 1488 1508 1509 
1528 1570 1549 1550 1529 1569 1609 1589 1629 
1649 9 49 29 30 50 69 90 89 
70 129 109 150 169 149 170 190 189 
210 209 229 248 268 249 269 309 308 
289 288 347 329 328 348 349 387 367 
368 388 407 408 427 447 448 428 488 
487 468 467 507 508 527 528 547 548 
567 568 608 607 588 587 648 628 627 
647 688 687 668 667 729 728 709 708 
769 768 748 749 791 811 810 790 831 
851 830 850 870 890 891 871 930 910 
931 911 970 951 971 950 1011 1010 990 
991 1031 1050 1051 1030 1091 1071 1090 1070 
1130 1111 1131 1110 1151 1150 1170 1171 1191 
1210 1190 1211 1231 1251 1250 1230 1271 1270 
1291 1311 1290 1310 1350 1331 1351 1330 1370 
1371 1391 1390 1411 1410 1430 1431 1450 1451 
1470 1471 1531 1510 1490 1491 1511 1530 1571 
1551 1590 1610 1611 1591 1630 1631 1651 1650 
11 31 10 71 92 51 91 111 131 
130 110 152 151 171 172 192 212 211 
191 250 231 230 251 270 290 271 291 
311 310 331 330 370 371 369 351 350 
391 389 390 410 411 409 449 430 429 
450 469 490 470 489 510 530 529 509 
570 550 569 549 611 609 589 590 610 
631 650 649 630 629 689 670 690 669 
730 731 710 711 750 770 771 751 813 
792 793 812 832 853 833 852 892 872 
873 893 932 912 933 913 952 953 972 
973 993 1013 1012 992 1052 1053 1033 1032 
1092 1093 1072 1073 1113 1133 1112 1132 1153 
1173 1152 1193 1172 1192 1233 1232 1212 1213 
1253 1252 1273 1272 1292 1293 1313 1312 1332 
1352 1353 1333 1392 1393 1372 1373 1432 1413 
1433 1412 1472 1493 1473 1453 1452 1492 1513 
1533 1532 1512 1573 1553 1572 1552 1593 1612 
1592 1613 1633 1653 1652 1632 53 33 32 
12 13 93 72 52 73 112 113 133 
132 153 173 193 194 214 213 252 232 
253 233 273 312 293 313 272 292 353 
332 352 333 373 393 372 392 432 433 
412 413 452 473 451 453 431 472 493 
471 513 492 491 512 533 532 531 511 
553 551 571 573 572 552 592 591 612 
593 613 633 652 632 653 651 671 693 
672 691 692 713 733 712 732 773 753 
772 752 795 814 794 815 835 834 854 
855 875 894 895 874 935 915 934 914 
974 975 954 955 1015 1014 994 995 1034 
1035 1054 1075 1055 1074 1095 1094 1115 1135 
1155 1154 1114 1134 1194 1195 1174 1175 1235 
1234 1215 1214 1254 1255 1275 1274 1295 1315 
1314 1294 1354 1334 1355 1335 1375 1415 1394 
1374 1395 1414 1455 1434 1454 1435 1495 1475 
1494 1474 1515 1514 1534 1535 1555 1574 1575 
1554 1594 1595 1615 1614 1635 1634 15 1655 
1654 55 14 35 54 34 74 75 94 
95 134 114 135 115 174 154 175 155 
234 235 215 195 255 275 274 254 314 
315 294 295 354 334 335 355 375 395 
374 394 414 435 434 415 475 454 474 
455 495 514 515 494 555 554 535 534 
595 574 575 594 615 614 635 634 654 
675 655 673 694 695 674 735 734 714 
715 775 774 754 755 836 837 816 817 
877 857 876 856 897 916 917 896 937 
957 956 936 976 996 977 997 1036 1016 
1017 1037 1056 1057 1076 1077 1116 1117 1097 
1096 1156 1136 1157 1137 1196 1176 1197 1177 
1236 1237 1217 1216 1276 1277 1257 1256 1297 
1296 1317 1337 1316 1336 1376 1377 1356 1357 
1397 1417 1416 1396 1457 1436 1456 1437 1496 
1476 1477 1497 1516 1537 1536 1517 1576 1556 
1577 1557 1616 1597 1637 1636 1596 1617 1657 
16 17 1656 36 37 57 56 96 77 
76 97 136 117 116 137 177 176 156 
157 197 196 237 217 216 236 276 256 
277 257 316 317 297 296 336 356 357 
337 396 376 377 397 436 437 417 416 
476 477 457 456 496 516 497 517 537 
557 556 536 577 596 597 576 637 636 
616 617 657 677 656 676 697 696 716 
717 737 757 756 736 796 797 776 777 
838 1059 1039 818 878 1079 1119 858 1099 
1139 918 898 1159 958 1179 1199 938 1239 
1018 998 1219 978 1259 1279 1058 1038 1078 
1299 1098 1319 1339 1118 1359 1138 1178 1399 
1379 1158 1198 1218 1419 1439 1459 1258 1499 
1238 1479 1298 1539 1519 1278 1318 1338 1579 
1559 1358 1619 1378 1599 1398 1438 1639 1659 
1418 39 19 1478 1458 59 1518 1498 79 
99 119 139 1558 1538 1578 159 1618 1598 
179 199 1658 219 1638 259 38 239 18 
78 58 279 299 118 98 319 339 158 
359 379 138 419 178 399 218 198 439 
479 238 459 258 519 499 298 278 559 
318 338 539 599 378 358 579 619 639 
418 398 438 458 659 478 679 699 498 
719 739 538 518 578 779 759 558 618 
799 819 598 839 638 859 658 678 879 
899 919 698 718 939 979 738 758 959 
778 1019 798 999 2401 2398 2399 2400 2405 
2403 2404 2402 2407 2409 2406 2408 2410 2413 
2412 2411 2417 2415 2416 2414 2419 2420 2421 
2418 2425 2427 2424 2422 2426 2423 2431 2428 
2430 2429 2435 2433 2434 2432 2436 2438 2437 
2439 2443 2441 2440 2442 2446 2447 2444 2445 
2448 2451 2450 2449 2453 2454 2455 2452 2458 
2456 2457 2459 2463 2461 2460 2462 2465 2467 
2466 2464 2469 2470 2471 2468 2473 2472 2474 
2475 2479 2481 2477 2476 2480 2478 2482 2483 
2484 2485 2486 2489 2487 2488 2493 2492 2490 
2491 2497 2496 2495 2494 2498 2499 2500 2501 
2502 2505 2503 2504 2509 2508 2507 2506 2511 
2512 2513 2510 2517 2515 2514 2516 2521 2519 
2520 2518 2522 2523 2524 2525 2527 2528 2529 
2526 2533 2532 2530 2531 2534 2535 2536 2537 
2538 2539 2540 2542 2541 2543 2544 2545 2546 
2547 2548 2549 2550 2551 2555 2552 2553 2554 
2558 2556 2557 2559 2560 2561 2562 2563 
FIELD FieldData 7
r 3 2798 float
-0.5375 -0.4625 0 -0.5125 -0.4875 0 -0.5125 -0.4625 0 
-0.5375 -0.4875 0 -0.487805 -0.4875 0 -0.463415 -0.4875 0 
-0.463415 -0.4625 0 -0.487805 -0.4625 0 -0.439024 -0.4875 0 
-0.414634 -0.4625 0 -0.439024 -0.4625 0 -0.414634 -0.4875 0 
-0.390244 -0.4625 0 -0.365854 -0.4875 0 -0.390244 -0.4875 0 
-0.365854 -0.4625 0 -0.317073 -0.4625 0 -0.341463 -0.4625 0 
-0.317073 -0.4875 0 -0.341463 -0.4875 0 -0.268293 -0.4875 0 
-0.292683 -0.4875 0 -0.268293 -0.4625 0 -0.292683 -0.4625 0 
-0.243902 -0.4875 0 -0.243902 -0.4625 0 -0.219512 -0.4625 0 
-0.219512 -0.4875 0 -0.170732 -0.4625 0 -0.195122 -0.4875 0 
-0.170732 -0.4875 0 -0.195122 -0.4625 0 -0.121951 -0.4875 0 
-0.146341 -0.4625 0 -0.146341 -0.4875 0 -0.121951 -0.4625 0 
-0.097561 -0.4625 0 -0.0731707 -0.4625 0 -0.0731707 -0.4875 0 
-0.097561 -0.4875 0 -0.0243903 -0.4625 0 -0.0487805 -0.4625 0 
-1.86265e-08 -0.4625 0 -1.86265e-08 -0.4875 0 -0.0487805 -0.4875 0 
-0.0243903 -0.4875 0 0.0243902 -0.4625 0 0.0487805 -0.4875 0 
0.0243902 -0.4875 0 0.0487805 -0.4625 0 0.097561 -0.4875 0 
0.097561 -0.4625 0 0.0731707 -0.4625 0 0.0731707 -0.4875 0 
0.121951 -0.4625 0 0.121951 -0.4875 0 0.146341 -0.4875 0 
0.146341 -0.4625 0 0.170732 -0.4625 0 0.170732 -0.4875 0 
0.195122 -0.4625 0 0.195122 -0.4875 0 0.243902 -0.4875 0 
0.219512 -0.4625 0 0.219512 -0.4875 0 0.243902 -0.4625 0 
0.292683 -0.4875 0 0.268293 -0.4625 0 0.268293 -0.4875 0 
0.292683 -0.4625 0 0.317073 -0.4875 0 0.341463 -0.4875 0 
0.341463 -0.4625 0 0.317073 -0.4625 0 0.390244 -0.4625 0 
0.365854 -0.4625 0 0.390244 -0.4875 0 0.365854 -0.4875 0 
0.439024 -0.4625 0 0.439024 -0.4875 0 0.414634 -0.4625 0 
0.414634 -0.4875 0 0.463415 -0.4875 0 0.463415 -0.4625 0 
0.487805 -0.4875 0 0.487805 -0.4625 0 0.5125 -0.4875 0 
0.5375 -0.4625 0 0.5125 -0.4625 0 0.5375 -0.4875 0 
-0.5125 -0.4125 0 -0.5375 -0.4375 0 -0.5375 -0.4125 0 
-0.5125 -0.4375 0 -0.464252 -0.410685 0 -0.488011 -0.41247 0 
-0.48785 -0.43754 0 -0.463777 -0.436903 0 -0.416798 -0.437119 0 
-0.441279 -0.410277 0 -0.418052 -0.411216 0 -0.44038 -0.436741 0 
-0.394531 -0.411509 0 -0.370777 -0.411968 0 -0.368905 -0.437399 0 
-0.39295 -0.437213 0 -0.320904 -0.437234 0 -0.3232 -0.41162 0 
-0.346939 -0.411849 0 -0.344804 -0.437341 0 -0.250039 -0.413069 0 
-0.296792 -0.43754 0 -0.299172 -0.412428 0 -0.272312 -0.437667 0 
-0.274715 -0.412887 0 -0.22304 -0.437789 0 -0.247706 -0.437719 0 
-0.225188 -0.413305 0 -0.200177 -0.4133 0 -0.198351 -0.437734 0 
-0.173388 -0.438022 0 -0.174829 -0.414081 0 -0.148116 -0.438087 0 
-0.123527 -0.413801 0 -0.12298 -0.437911 0 -0.149115 -0.414327 0 
-0.0981978 -0.437734 0 -0.0983073 -0.41338 0 -0.0732647 -0.438017 0 
-0.0729549 -0.414101 0 -0.04805 -0.438015 0 -0.0472751 -0.414185 0 
-0.0230138 -0.437812 0 -0.0217596 -0.413561 0 0.00166553 -0.437642 0 
0.0281442 -0.413448 0 0.00327422 -0.413069 0 0.0263158 -0.437819 0 
0.0510782 -0.43774 0 0.0757383 -0.437747 0 0.0780548 -0.413246 0 
0.0531516 -0.413298 0 0.124999 -0.437772 0 0.149655 -0.437833 0 
0.100375 -0.437749 0 0.102917 -0.41325 0 0.127788 -0.413276 0 
0.177429 -0.413399 0 0.174358 -0.437852 0 0.199039 -0.437847 0 
0.152613 -0.413376 0 0.248247 -0.437819 0 0.202205 -0.413333 0 
0.223672 -0.437839 0 0.226881 -0.413245 0 0.251458 -0.413153 0 
0.272765 -0.437795 0 0.297296 -0.437842 0 0.275977 -0.413117 0 
0.348885 -0.412423 0 0.346166 -0.437654 0 0.324873 -0.413009 0 
0.321837 -0.437844 0 0.30049 -0.413202 0 0.370279 -0.437637 0 
0.396179 -0.411815 0 0.372652 -0.412319 0 0.394259 -0.437575 0 
0.441191 -0.410348 0 0.418962 -0.409743 0 0.417486 -0.436683 0 
0.44024 -0.436917 0 0.464353 -0.41295 0 0.463941 -0.437889 0 
0.48847 -0.438144 0 0.488403 -0.413305 0 0.5125 -0.4125 0 
0.5375 -0.4125 0 0.5125 -0.4375 0 0.5375 -0.4375 0 
-0.5375 -0.3625 0 -0.5125 -0.3625 0 -0.5375 -0.3875 0 
-0.5125 -0.3875 0 -0.464463 -0.38405 0 -0.487942 -0.361971 0 
-0.488011 -0.387205 0 -0.464491 -0.357003 0 -0.442024 -0.356418 0 
-0.441767 -0.383452 0 -0.418742 -0.385021 0 -0.419123 -0.358669 0 
-0.395886 -0.359298 0 -0.395409 -0.385494 0 -0.372413 -0.360474 0 
-0.37184 -0.386282 0 -0.300357 -0.387285 0 -0.348145 -0.386144 0 
-0.324966 -0.360348 0 -0.3008 -0.362206 0 -0.324438 -0.385942 0 
-0.348765 -0.360374 0 -0.25117 -0.388488 0 -0.275874 -0.388074 0 
-0.25153 -0.363989 0 -0.276301 -0.363269 0 -0.200809 -0.389176 0 
-0.200602 -0.365361 0 -0.226141 -0.389055 0 -0.226282 -0.365078 0 
-0.17469 -0.367024 0 -0.175157 -0.390429 0 -0.123265 -0.390009 0 
-0.149166 -0.390876 0 -0.122392 -0.366436 0 -0.148493 -0.367638 0 
-0.0976965 -0.389381 0 -0.0720107 -0.39054 0 -0.0965325 -0.365679 0 
-0.0705649 -0.36731 0 -0.0459453 -0.39073 0 -0.0199743 -0.389641 0 
-0.0177123 -0.36603 0 -0.0441198 -0.367675 0 0.0078551 -0.364345 0 
0.0328387 -0.365178 0 0.0303439 -0.389242 0 0.00535709 -0.388667 0 
0.0806679 -0.388907 0 0.0835562 -0.364695 0 0.0555511 -0.389049 0 
0.0582316 -0.365039 0 0.130768 -0.388943 0 0.108624 -0.364773 0 
0.133703 -0.364704 0 0.105702 -0.388963 0 0.183377 -0.364276 0 
0.155692 -0.388951 0 0.18046 -0.38892 0 0.158677 -0.36449 0 
0.229756 -0.388589 0 0.207942 -0.364073 0 0.232481 -0.363844 0 
0.205146 -0.388772 0 0.254288 -0.388434 0 0.256979 -0.36365 0 
0.278764 -0.388369 0 0.28136 -0.363479 0 0.305474 -0.363166 0 
0.327172 -0.387754 0 0.303125 -0.388363 0 0.329127 -0.361987 0 
0.35237 -0.360653 0 0.374201 -0.386654 0 0.398667 -0.359098 0 
0.37558 -0.360723 0 0.39749 -0.385617 0 0.350767 -0.386734 0 
0.420994 -0.354752 0 0.44271 -0.35539 0 0.44192 -0.383096 0 
0.420058 -0.3824 0 0.488393 -0.363283 0 0.464578 -0.387498 0 
0.488442 -0.388336 0 0.464821 -0.361552 0 0.5375 -0.3625 0 
0.5125 -0.3625 0 0.5375 -0.3875 0 0.5125 -0.3875 0 
-0.5125 -0.3375 0 -0.5125 -0.3125 0 -0.5375 -0.3375 0 
-0.5375 -0.3125 0 -0.464556 -0.329626 0 -0.487873 -0.336866 0 
-0.487894 -0.311775 0 -0.464804 -0.3021 0 -0.442158 -0.329295 0 
-0.41957 -0.305528 0 -0.41935 -0.332201 0 -0.442306 -0.302241 0 
-0.372697 -0.334621 0 -0.396181 -0.333054 0 -0.396488 -0.30683 0 
-0.372955 -0.308817 0 -0.349191 -0.308996 0 -0.34903 -0.334628 0 
-0.301 -0.312048 0 -0.325108 -0.334916 0 -0.300882 -0.337171 0 
-0.32515 -0.30957 0 -0.251554 -0.339642 0 -0.27641 -0.33847 0 
-0.251691 -0.315424 0 -0.276603 -0.313644 0 -0.200046 -0.341816 0 
-0.225977 -0.318018 0 -0.226045 -0.341416 0 -0.173911 -0.343804 0 
-0.199764 -0.318458 0 -0.173474 -0.320665 0 -0.147177 -0.321366 0 
-0.121432 -0.343007 0 -0.120923 -0.319736 0 -0.147621 -0.344489 0 
-0.0690721 -0.344364 0 -0.0681057 -0.321632 0 -0.0946051 -0.319016 0 
-0.0953256 -0.34224 0 -0.0138508 -0.319712 0 -0.0154787 -0.34269 0 
-0.0410479 -0.322609 0 -0.0400808 -0.300494 0 -0.0422885 -0.344975 0 
0.0103355 -0.340006 0 0.0374842 -0.317187 0 0.035315 -0.341195 0 