# vtk DataFile Version 4.0
vtk output
ASCII
DATASET POLYDATA
FIELD FieldData 4
domain 1 3 string
domain_min:-20|-15
domain_max:20|15
cell_size:0.05

variables 1 2 string
dt:0.000372678
T:0.332066

constants 1 10 string
xsize:2
ysize:1
csize:0.05
dx:0.0238095
h:0.025
rho0:1000
mass:0.566894
g:1|0
c:13.4164
CFL:0.2

functions 1 8 string
time:T=(T+dt)
continuity:rho_dot=((-(rho*sph_D00(v,mass,rho,Wp52220)))+(((0.1*c)*h)*sph_L00(rho,mass,rho,Wp52220)))
irho:rho=(rho+int1((rho_dot,dt))
EOS:p=(((c^2)*(rho-rho0))+10000)
euler:a=if((gid,(0*v),(((-((1/rho)*sph_G11(p,mass,rho,Wp52220)))+(0.01*sph_L00(v,mass,rho,Wp52220)))+g))
vel:v=(v+int1((a,dt))
pos:r=(r+int1((v,dt))
new_dt:dt=(CFL*min((sqrt(((h/fmax(magnitude((a)))),(h/c)))

POINTS 2798 float
-0.5125 -0.4625 0 -0.5375 -0.4875 0 -0.5375 -0.4625 0 
-0.5125 -0.4875 0 -0.487805 -0.4875 0 -0.463415 -0.4875 0 
-0.463415 -0.4625 0 -0.487805 -0.4625 0 -0.439024 -0.4625 0 
-0.414634 -0.4875 0 -0.414634 -0.4625 0 -0.439024 -0.4875 0 
-0.390244 -0.4875 0 -0.365854 -0.4625 0 -0.365854 -0.4875 0 
-0.390244 -0.4625 0 -0.341463 -0.4875 0 -0.317073 -0.4625 0 
-0.317073 -0.4875 0 -0.341463 -0.4625 0 -0.268293 -0.4875 0 
-0.268293 -0.4625 0 -0.292683 -0.4875 0 -0.292683 -0.4625 0 
-0.243902 -0.4875 0 -0.219512 -0.4875 0 -0.243902 -0.4625 0 
-0.219512 -0.4625 0 -0.195122 -0.4625 0 -0.170732 -0.4875 0 
-0.170732 -0.4625 0 -0.195122 -0.4875 0 -0.121951 -0.4625 0 
-0.121951 -0.4875 0 -0.146341 -0.4625 0 -0.146341 -0.4875 0 
-0.0731707 -0.4625 0 -0.0731707 -0.4875 0 -0.097561 -0.4625 0 
-0.097561 -0.4875 0 -0.0243903 -0.4875 0 -0.0487805 -0.4875 0 
-0.0243903 -0.4625 0 -0.0487805 -0.4625 0 -1.86265e-08 -0.4875 0 
-1.86265e-08 -0.4625 0 0.0487805 -0.4625 0 0.0243902 -0.4875 0 
0.0243902 -0.4625 0 0.0487805 -0.4875 0 0.0731707 -0.4875 0 
0.0731707 -0.4625 0 0.097561 -0.4875 0 0.097561 -0.4625 0 
0.121951 -0.4875 0 0.121951 -0.4625 0 0.146341 -0.4625 0 
0.146341 -0.4875 0 0.170732 -0.4625 0 0.195122 -0.4875 0 
0.195122 -0.4625 0 0.170732 -0.4875 0 0.219512 -0.4875 0 
0.243902 -0.4625 0 0.243902 -0.4875 0 0.219512 -0.4625 0 
0.268293 -0.4875 0 0.268293 -0.4625 0 0.292683 -0.4875 0 
0.292683 -0.4625 0 0.317073 -0.4875 0 0.341463 -0.4625 0 
0.317073 -0.4625 0 0.341463 -0.4875 0 0.390244 -0.4875 0 
0.390244 -0.4625 0 0.365854 -0.4875 0 0.365854 -0.4625 0 
0.414634 -0.4875 0 0.414634 -0.4625 0 0.439024 -0.4875 0 
0.439024 -0.4625 0 0.487805 -0.4625 0 0.487805 -0.4875 0 
0.463415 -0.4625 0 0.463415 -0.4875 0 0.5125 -0.4625 0 
0.5375 -0.4875 0 0.5125 -0.4875 0 0.5375 -0.4625 0 
-0.5375 -0.4125 0 -0.5375 -0.4375 0 -0.5125 -0.4125 0 
-0.5125 -0.4375 0 -0.487892 -0.437285 0 -0.463604 -0.411897 0 
-0.463526 -0.437194 0 -0.487913 -0.412082 0 -0.415029 -0.437258 0 
-0.439394 -0.411881 0 -0.439266 -0.437223 0 -0.41522 -0.411974 0 
-0.366595 -0.412316 0 -0.36639 -0.437372 0 -0.390743 -0.43733 0 
-0.390968 -0.412165 0 -0.317469 -0.437447 0 -0.341956 -0.437437 0 
-0.342089 -0.412507 0 -0.317479 -0.412576 0 -0.26808 -0.412652 0 
-0.268375 -0.437469 0 -0.29293 -0.437512 0 -0.292793 -0.412732 0 
-0.219188 -0.437565 0 -0.243348 -0.412791 0 -0.243822 -0.437517 0 
-0.218515 -0.412931 0 -0.193639 -0.412897 0 -0.168785 -0.412913 0 
-0.169888 -0.43756 0 -0.194527 -0.437547 0 -0.145236 -0.437587 0 
-0.119063 -0.412979 0 -0.120574 -0.437597 0 -0.14393 -0.412968 0 
-0.0959251 -0.437613 0 -0.0942108 -0.412988 0 -0.0712864 -0.437633 0 
-0.0693788 -0.413002 0 -0.022046 -0.437664 0 -0.0466582 -0.437651 0 
-0.0445706 -0.41301 0 -0.0197896 -0.413009 0 0.00495683 -0.413003 0 
0.0025475 -0.437675 0 0.0271225 -0.437682 0 0.0296638 -0.41299 0 
0.054329 -0.412966 0 0.0789472 -0.412933 0 0.0762079 -0.437678 0 
0.0516767 -0.437682 0 0.149647 -0.437641 0 0.100715 -0.437669 0 
0.103516 -0.412892 0 0.128032 -0.412845 0 0.125195 -0.437656 0 
0.174069 -0.437627 0 0.152495 -0.412794 0 0.198464 -0.437612 0 
0.176904 -0.412741 0 0.201254 -0.412684 0 0.249768 -0.412556 0 
0.247149 -0.437576 0 0.222825 -0.437593 0 0.225541 -0.412618 0 
0.298053 -0.41244 0 0.273942 -0.412508 0 0.295706 -0.43755 0 
0.271443 -0.437564 0 0.344101 -0.437512 0 0.319926 -0.43753 0 
0.322092 -0.412358 0 0.346049 -0.412272 0 0.392229 -0.437428 0 
0.369906 -0.412128 0 0.36821 -0.437472 0 0.393656 -0.411996 0 
0.440148 -0.437433 0 0.416207 -0.437426 0 0.417333 -0.411958 0 
0.440923 -0.411901 0 0.464549 -0.412111 0 0.464116 -0.43745 0 
0.48831 -0.437764 0 0.48838 -0.412657 0 0.5125 -0.4125 0 
0.5375 -0.4375 0 0.5375 -0.4125 0 0.5125 -0.4375 0 
-0.5125 -0.3625 0 -0.5375 -0.3625 0 -0.5125 -0.3875 0 
-0.5375 -0.3875 0 -0.463636 -0.386547 0 -0.487926 -0.386847 0 
-0.487952 -0.361587 0 -0.463707 -0.361171 0 -0.415338 -0.386646 0 
-0.415555 -0.361264 0 -0.439598 -0.361062 0 -0.43947 -0.3865 0 
-0.391104 -0.387013 0 -0.391361 -0.361867 0 -0.366696 -0.387318 0 
-0.366926 -0.362374 0 -0.342267 -0.362965 0 -0.317384 -0.387845 0 
-0.317436 -0.363239 0 -0.342111 -0.387685 0 -0.292502 -0.363596 0 
-0.267561 -0.363438 0 -0.267716 -0.387987 0 -0.292562 -0.388102 0 
-0.217827 -0.388484 0 -0.242832 -0.388245 0 -0.217405 -0.3642 0 
-0.242557 -0.363856 0 -0.192215 -0.364137 0 -0.192775 -0.38844 0 
-0.167754 -0.388445 0 -0.167071 -0.364114 0 -0.116816 -0.364207 0 
-0.141945 -0.364213 0 -0.142742 -0.388525 0 -0.117725 -0.388534 0 
-0.0666601 -0.364145 0 -0.0927296 -0.388533 0 -0.09172 -0.364181 0 
-0.0677619 -0.388529 0 -0.0179423 -0.388487 0 -0.0416453 -0.364087 0 
-0.0166865 -0.364018 0 -0.0428316 -0.388515 0 0.0330551 -0.363807 0 
0.0316832 -0.388388 0 0.00689936 -0.388443 0 0.00821815 -0.363922 0 
0.0564069 -0.388317 0 0.0825054 -0.363528 0 0.0810674 -0.388232 0 
0.0578179 -0.363677 0 0.10566 -0.388137 0 0.130184 -0.388031 0 
0.107112 -0.363364 0 0.131631 -0.363187 0 0.154636 -0.387918 0 
0.156062 -0.362997 0 0.1804 -0.362798 0 0.17901 -0.3878 0 
0.227518 -0.387538 0 0.204649 -0.362593 0 0.203303 -0.387673 0 
0.228818 -0.362389 0 0.251665 -0.38742 0 0.275738 -0.387302 0 
0.299721 -0.387149 0 0.252909 -0.362196 0 0.276903 -0.361986 0 
0.30079 -0.361727 0 0.32361 -0.386982 0 0.347409 -0.386796 0 
0.34827 -0.361175 0 0.32458 -0.36146 0 0.394678 -0.386313 0 
0.371093 -0.386531 0 0.371861 -0.360794 0 0.395374 -0.360486 0 
0.418161 -0.386177 0 0.441911 -0.359857 0 0.441521 -0.386044 0 
0.418759 -0.360201 0 0.488467 -0.387367 0 0.464815 -0.386365 0 
0.488475 -0.36198 0 0.464966 -0.360338 0 0.5375 -0.3625 0 
0.5375 -0.3875 0 0.5125 -0.3875 0 0.5125 -0.3625 0 
-0.5125 -0.3375 0 -0.5375 -0.3125 0 -0.5375 -0.3375 0 
-0.5125 -0.3125 0 -0.487959 -0.336296 0 -0.463723 -0.335752 0 
-0.463701 -0.310316 0 -0.487948 -0.311014 0 -0.439764 -0.309858 0 
-0.415754 -0.33579 0 -0.439685 -0.335531 0 -0.415996 -0.310203 0 
-0.367181 -0.312763 0 -0.391585 -0.336747 0 -0.391832 -0.311691 0 
-0.36707 -0.337506 0 -0.317159 -0.314418 0 -0.342266 -0.313879 0 
-0.342301 -0.338352 0 -0.317337 -0.338756 0 -0.267251 -0.338978 0 
-0.291989 -0.314895 0 -0.266885 -0.314595 0 -0.292283 -0.339197 0 
-0.241594 -0.315597 0 -0.216047 -0.316098 0 -0.242114 -0.339626 0 
-0.216785 -0.340062 0 -0.165274 -0.315706 0 -0.191458 -0.339951 0 
-0.190574 -0.315862 0 -0.16622 -0.339881 0 -0.141004 -0.340015 0 
-0.115768 -0.339983 0 -0.114665 -0.315855 0 -0.140002 -0.315913 0 
-0.0654647 -0.339841 0 -0.0894041 -0.315699 0 -0.0905901 -0.33991 0 
-0.0642291 -0.315593 0 -0.040384 -0.339723 0 -0.0153782 -0.339593 0 
-0.0140204 -0.315194 0 -0.0390852 -0.315411 0 0.00956171 -0.339439 0 
0.0109471 -0.314973 0 0.034434 -0.339252 0 0.0358403 -0.314708 0 
0.083917 -0.338821 0 0.0606395 -0.314413 0 0.0853326 -0.314093 0 
0.0592206 -0.339048 0 0.109919 -0.313748 0 0.134396 -0.313389 0 
0.108516 -0.338573 0 0.133013 -0.338308 0 0.18171 -0.337747 0 
0.158773 -0.313023 0 0.15741 -0.33803 0 0.183054 -0.312656 0 
0.231314 -0.311911 0 0.205921 -0.337462 0 0.230047 -0.337183 0 
0.207237 -0.312288 0 0.254074 -0.336897 0 0.279076 -0.311042 0 
0.277982 -0.336562 0 0.255262 -0.311501 0 0.325475 -0.335844 0 
0.349999 -0.30967 0 0.326432 -0.310137 0 0.301774 -0.336198 0 
0.349093 -0.335444 0 0.302793 -0.310576 0 0.373495 -0.309107 0 
0.396899 -0.308619 0 0.39608 -0.334601 0 0.372622 -0.334976 0 
0.420075 -0.307745 0 0.419378 -0.334057 0 0.442351 -0.333391 0 
0.442866 -0.306629 0 0.488478 -0.336551 0 0.465335 -0.307335 0 
0.488486 -0.311086 0 0.465116 -0.334014 0 0.5375 -0.3375 0 
0.5375 -0.3125 0 0.5125 -0.3375 0 0.5125 -0.3125 0 
-0.5125 -0.2625 0 -0.5375 -0.2625 0 -0.5375 -0.2875 0 
-0.5125 -0.2875 0 -0.487962 -0.260477 0 -0.463837 -0.259227 0 
-0.487943 -0.285757 0 -0.463718 -0.284831 0 -0.416987 -0.258547 0 
-0.416416 -0.284455 0 -0.44033 -0.257721 0 -0.439965 -0.283941 0 
-0.392255 -0.286734 0 -0.367473 -0.288163 0 -0.392824 -0.261828 0 
-0.36795 -0.263652 0 -0.317221 -0.29019 0 -0.317621 -0.266019 0 
-0.342845 -0.265219 0 -0.342431 -0.289518 0 -0.267218 -0.265974 0 
-0.291982 -0.29066 0 -0.266849 -0.290274 0 -0.292365 -0.26644 0 
-0.241386 -0.291784 0 -0.24157 -0.268204 0 -0.215601 -0.292315 0 
-0.215525 -0.268736 0 -0.189734 -0.267939 0 -0.164377 -0.267384 0 
-0.189985 -0.291864 0 -0.164646 -0.29155 0 -0.13934 -0.291889 0 
-0.113518 -0.26796 0 -0.139073 -0.267932 0 -0.113902 -0.291836 0 
-0.0879837 -0.26747 0 -0.0627182 -0.267184 0 -0.0633382 -0.291393 0 
-0.0885432 -0.291542 0 -0.0130076 -0.29085 0 -0.0375656 -0.26699 0 
-0.0123846 -0.266592 0 -0.0381532 -0.29118 0 0.0369255 -0.290175 0 
0.0376822 -0.265674 0 0.0120132 -0.290528 0 0.0127167 -0.266135 0 
0.0625391 -0.265168 0 0.0872847 -0.264644 0 0.0617395 -0.289777 0 
0.0864417 -0.289355 0 0.13553 -0.288463 0 0.111919 -0.264107 0 
0.111037 -0.288913 0 0.136442 -0.263562 0 0.16084 -0.263003 0 
0.185098 -0.262417 0 0.184201 -0.287549 0 0.159919 -0.28801 0 
0.232379 -0.286565 0 0.208359 -0.287071 0 0.209209 -0.261801 0 
0.233179 -0.261151 0 0.257038 -0.260486 0 0.256256 -0.286013 0 
0.28002 -0.285437 0 0.280838 -0.259855 0 0.304614 -0.259283 0 
0.32833 -0.25872 0 0.327361 -0.284415 0 0.303714 -0.284917 0 
0.350945 -0.283849 0 0.351943 -0.258057 0 0.374407 -0.283175 0 
[...]
POINT_DATA 2798
SCALARS id float
LOOKUP_TABLE default
2621 2600 2601 2620 2640 2642 2643 2641 2645 
2646 2647 2644 2648 2651 2650 2649 2652 2655 
2654 2653 2658 2659 2656 2657 2660 2662 2661 
2663 2665 2666 2667 2664 2671 2670 2669 2668 
2675 2674 2673 2672 2678 2676 2679 2677 2680 
2681 2685 2682 2683 2684 2686 2687 2688 2689 
2690 2691 2693 2692 2695 2696 2697 2694 2698 
2701 2700 2699 2702 2703 2704 2705 2706 2709 
2707 2708 2712 2713 2710 2711 2714 2715 2716 
2717 2721 2720 2719 2718 2723 2742 2722 2743 
2603 2602 2623 2622 1660 1679 1678 1661 1714 
1697 1696 1715 1751 1750 1732 1733 1786 1768 
1769 1787 1823 1822 1804 1805 1858 1841 1840 
1859 1877 1895 1894 1876 1912 1931 1930 1913 
1948 1949 1966 1967 2002 1984 1985 2003 2021 
2020 2038 2039 2057 2075 2074 2056 2128 2092 
2093 2111 2110 2146 2129 2164 2147 2165 2201 
2200 2182 2183 2237 2219 2236 2218 2272 2254 
2255 2273 2308 2291 2290 2309 2344 2326 2327 
2345 2363 2362 2380 2381 2725 2744 2745 2724 
2625 2605 2624 2604 1680 1662 1663 1681 1716 
1717 1699 1698 1734 1735 1752 1753 1771 1788 
1789 1770 1807 1825 1824 1806 1860 1842 1861 
1843 1879 1878 1896 1897 1933 1915 1914 1932 
1969 1950 1951 1968 2004 1987 2005 1986 2041 
2040 2022 2023 2058 2077 2076 2059 2094 2112 
2095 2113 2130 2131 2149 2148 2184 2167 2166 
2185 2202 2220 2238 2203 2221 2239 2256 2274 
2275 2257 2310 2292 2293 2311 2328 2347 2346 
2329 2382 2364 2383 2365 2747 2746 2726 2727 
2626 2607 2606 2627 1664 1682 1683 1665 1701 
1718 1700 1719 1755 1736 1737 1754 1791 1773 
1772 1790 1826 1809 1827 1808 1845 1863 1844 
1862 1899 1880 1881 1898 1916 1934 1935 1917 
1970 1953 1952 1971 1988 2006 2007 1989 2024 
2025 2042 2043 2078 2061 2079 2060 2097 2115 
2096 2114 2150 2133 2132 2151 2187 2168 2186 
2169 2204 2223 2222 2205 2258 2277 2259 2240 
2276 2241 2295 2313 2312 2294 2331 2330 2348 
2349 2384 2367 2385 2366 2748 2749 2728 2729 
2629 2609 2608 2628 1667 1685 1666 1684 1721 
1720 1703 1702 1738 1756 1739 1757 1792 1793 
1775 1774 1829 1810 1828 1811 1846 1847 1864 
1865 1883 1901 1882 1900 1918 1937 1919 1936 
1955 1973 1972 1954 2008 1991 2009 1990 2044 
2045 2026 2027 2063 2081 2062 2080 2116 2099 
2098 2117 2135 2153 2152 2134 2188 2170 2171 
2189 2207 2206 2224 2225 2243 2261 2260 2242 
2278 2279 2296 2297 2315 2314 2350 2332 2351 
2333 2368 2369 2386 2387 2731 2751 2730 2750 
2630 2610 2631 2611 1686 1687 1668 1669 1722 
1704 1723 1705 1740 1758 1759 1741 1795 1776 
1777 1794 1831 1830 1813 1812 1866 1848 1849 
1867 1902 1885 1903 1884 1921 1938 1920 1939 
1957 1956 1975 1974 2011 2010 1992 1993 2028 
2046 2047 2029 2065 2082 2083 2064 2118 2119 
2101 2100 2155 2154 2136 2137 2190 2191 2172 
2173 2208 2227 2226 2209 2262 2245 2244 2263 
2299 2298 2316 2280 2281 2352 2334 2317 2389 
2388 2370 2733 2752 2732 2753 2632 2633 2613 
2612 1670 1689 1671 1688 1707 1706 1724 1725 
1761 1743 1742 1760 1778 1797 1779 1796 1833 
1832 1815 1814 1850 1851 1852 1870 1868 1869 
1886 1905 1904 1887 1923 1940 1942 1922 1924 
1941 1977 1959 1976 1958 1994 1995 2013 2012 
2049 2031 2048 2030 2085 2067 2084 2066 2120 
2103 2102 2121 2138 2139 2157 2156 2174 2193 
2175 2192 2229 2228 2211 2210 2247 2264 2246 
2265 2301 2283 2300 2282 2335 2353 2336 2354 
2318 2390 2371 2391 2372 2735 2754 2755 2734 
2635 2614 2615 2634 1672 1691 1673 1690 1727 
1708 1726 1763 1762 1745 1744 1798 1781 1799 
1780 1835 1816 1817 1834 1854 1853 1872 1871 
1888 1908 1890 1907 1889 1906 1926 1925 1944 
1943 1962 1979 1961 1978 1960 1996 1980 1997 
2014 2015 2033 2032 2050 2068 2086 2051 2069 
2087 2122 2105 2123 2104 2141 2159 2140 2158 
2195 2194 2177 2176 2212 2231 2213 2230 2266 
2267 2249 2248 2284 2285 2302 2319 2355 2338 
2320 2337 2373 2374 2392 2356 2736 2757 2737 
2756 2636 2637 2617 2616 1674 1675 1692 1710 
1729 1709 1728 1765 1747 1764 1746 1783 1782 
1800 1784 1801 1766 1818 1819 1836 1837 1855 
1856 1873 1874 1892 1891 1909 1928 1910 1927 
1945 1946 1964 1963 1981 1999 1998 1982 2034 
2016 2035 2017 2053 2071 2052 2070 2107 2089 
2106 2088 2125 2161 2143 2160 2142 2124 2196 
2179 2178 2197 2215 2214 2232 2233 2269 2268 
2250 2251 2286 2303 2304 2340 2322 2321 2339 
2358 2394 2393 2357 2375 2758 2738 2759 2739 
2567 2564 2566 2565 2571 2570 2569 2568 2572 
2574 2575 2573 2576 2577 2579 2578 2583 2581 
2580 2582 2586 2585 2584 2587 2590 2588 2591 
2589 2595 2594 2593 2592 2599 2597 2598 2596 
2639 2638 2619 2618 1677 1693 1676 1694 1695 
1712 1711 80 60 1730 1713 1748 1731 100 
120 1749 1767 1785 1820 140 160 1802 180 
200 1803 1838 240 220 1839 1821 1875 280 
300 260 1857 181 1893 320 1911 1929 2000 
340 360 380 2018 1947 2036 2072 1983 2054 
1965 2090 2108 2019 2001 2144 2055 2126 2037 
2198 2091 2162 2180 2073 2109 2234 2216 2127 
2145 2163 2252 2270 2306 2305 2287 2288 2324 
2342 2323 2341 2395 2376 2360 2359 2760 2741 
2740 2761 2764 2765 2762 2763 2768 2769 2767 
2766 2772 2771 2773 2770 2776 2774 2775 2777 
2779 2778 2781 2780 2784 2783 2785 2782 2787 
2786 2788 2789 2790 2793 2792 2791 2797 2796 
2795 2794 1220 1240 1121 1101 1141 1280 1260 
1161 1201 1181 1300 1320 1340 1241 1221 1360 
1380 1261 1400 1440 1301 1420 1281 1321 1341 
1480 1460 1361 1520 1500 1381 1401 1560 1540 
1421 1441 1600 1580 1461 1620 1501 1640 1481 
1521 1561 1541 0 20 40 1581 1601 1641 
1642 1621 21 22 1 41 2 42 81 
62 61 102 121 101 82 122 141 162 
142 161 182 201 202 221 242 222 261 
241 400 262 281 282 301 321 440 302 
420 460 361 341 401 381 500 480 421 
461 540 441 560 520 600 501 580 481 
620 640 521 541 2199 660 680 2181 700 
2217 2235 720 2253 2271 760 740 2377 780 
2378 2396 2307 800 840 2289 2325 2343 860 
761 2379 900 880 2361 2397 920 1020 940 
960 980 1060 1000 1080 1100 941 961 1120 
1040 1001 1041 1160 1061 1140 1081 1200 1180 
1083 1102 1082 1063 1142 1123 1122 1103 1182 
1162 1143 1163 1183 1222 1203 1202 1223 1242 
1263 1262 1243 1303 1283 1302 1282 1322 1323 
1343 1342 1382 1363 1362 1383 1423 1422 1402 
1403 1443 1463 1462 1442 1503 1483 1502 1482 
1542 1543 1522 1523 1582 1562 1583 1563 1623 
1603 1622 1602 1643 23 3 64 63 44 
24 43 104 103 84 83 144 123 124 
143 163 164 204 203 183 184 223 243 
244 224 284 263 264 283 303 322 323 
363 342 362 343 383 403 402 382 442 
443 423 422 463 462 482 483 502 522 
523 542 503 543 561 562 563 581 582 
621 601 622 602 661 642 641 681 682 
662 701 702 721 722 741 781 762 742 
820 802 801 821 782 842 861 841 822 
881 901 882 862 921 902 923 922 943 
963 962 942 1022 982 981 1002 1021 1042 
1062 1043 1023 1084 1085 1064 1065 1124 1105 
1125 1104 1145 1165 1144 1164 1205 1204 1185 
1184 1224 1245 1244 1225 1264 1265 1305 1284 
1304 1285 1344 1324 1345 1325 1385 1364 1384 
1365 1424 1405 1404 1425 1465 1464 1445 1444 
1504 1505 1485 1484 1545 1524 1544 1525 1564 
1584 1585 1565 1624 1604 1625 1605 4 5 
1645 1644 45 25 65 106 105 85 145 
146 126 125 165 186 185 166 205 225 
226 206 246 285 265 286 266 245 305 
325 304 324 364 345 365 344 384 385 
405 404 444 425 445 424 484 464 465 
485 504 505 525 524 544 545 565 564 
583 604 603 584 643 624 644 623 663 
664 684 683 703 723 704 724 764 743 
744 765 763 803 804 784 783 845 824 
823 843 844 883 884 885 864 863 905 
924 903 925 904 965 964 945 944 983 
1003 984 1005 1004 1044 1024 1025 1045 1087 
1067 1066 1086 1107 1106 1126 1127 1167 1166 
1147 1146 1187 1186 1206 1207 1226 1227 1246 
1247 1267 1286 1287 1266 1327 1307 1326 1306 
1386 1367 1366 1347 1346 1387 1426 1427 1406 
1407 1447 1467 1446 1466 1486 1507 1487 1506 
1526 1546 1547 1527 1586 1566 1567 1587 1626 
1606 1627 1607 6 1647 7 1646 47 46 
27 26 66 87 86 67 107 127 147 
168 187 167 188 228 208 207 227 267 
268 247 248 326 307 306 287 327 347 
346 367 366 387 386 406 407 446 427 
447 426 466 487 486 467 507 526 527 
506 566 547 546 567 585 607 605 606 
586 587 646 627 625 645 647 626 686 
665 685 666 725 705 707 726 706 745 
746 766 767 787 786 805 806 807 785 
847 827 846 825 826 886 867 866 865 
887 906 927 907 926 946 966 967 947 
987 1007 986 1006 985 1027 1046 1026 1047 
1088 1068 1069 1089 1108 1128 1109 1129 1169 
1148 1149 1168 1188 1189 1209 1208 1229 1228 
1248 1249 1268 1288 1289 1269 1309 1329 1308 
1328 1349 1348 1369 1368 1409 1429 1408 1428 
1388 1389 1448 1449 1468 1469 1489 1508 1509 
1488 1548 1528 1549 1529 1589 1569 1588 1568 
1609 1629 1608 1628 1648 9 8 1649 29 
49 48 28 89 88 69 68 109 108 
149 128 129 148 189 169 210 230 229 
209 250 249 269 270 309 329 288 308 
289 328 369 368 348 349 389 388 408 
409 449 448 429 428 468 489 469 488 
529 528 509 508 569 548 568 549 589 
609 608 588 648 629 628 649 668 669 
689 687 688 667 728 708 709 727 729 
768 747 749 748 769 788 809 808 789 
828 848 849 829 869 888 868 889 908 
909 928 929 948 968 969 949 1008 989 
1009 988 1029 1048 1049 1028 1090 1070 1091 
1071 1131 1130 1111 1110 1150 1170 1171 1151 
1190 1191 1210 1211 1230 1251 1250 1231 1290 
1291 1270 1271 1311 1310 1331 1330 1351 1370 
1371 1350 1410 1431 1430 1411 1390 1391 1450 
1470 1451 1471 1490 1491 1510 1511 1530 1531 
1551 1550 1590 1591 1571 1570 1630 1631 1610 
1611 11 1650 1651 10 31 51 50 30 
70 71 90 91 110 130 150 151 131 
111 191 171 170 190 211 231 251 271 
291 310 290 311 351 371 350 370 331 
330 390 410 411 391 430 431 451 450 
490 491 470 471 531 511 510 530 570 
551 571 550 610 611 590 591 651 650 
630 631 671 670 690 691 731 730 711 
710 770 771 751 750 791 811 810 790 
831 851 830 850 871 890 891 870 931 
911 910 930 971 970 950 951 1011 990 
1010 991 1050 1030 1051 1031 1072 1093 1092 
1073 1133 1112 1132 1113 1153 1152 1172 1173 
1213 1192 1193 1212 1233 1232 1253 1252 1293 
1272 1292 1273 1313 1312 1333 1332 1393 1352 
1372 1373 1392 1353 1413 1412 1433 1432 1473 
1453 1452 1472 1493 1513 1512 1492 1553 1533 
1532 1552 1573 1593 1572 1592 1613 1632 1612 
1633 1653 1652 12 13 53 33 32 52 
92 112 72 73 113 93 153 132 133 
152 192 193 172 173 212 232 233 213 
253 273 252 272 293 312 313 292 372 
373 353 333 352 332 412 413 392 393 
433 452 432 453 472 473 492 493 533 
513 532 512 553 552 573 572 592 593 
612 613 632 652 653 633 673 672 693 
692 712 733 713 732 752 753 772 773 
792 793 813 812 833 853 832 852 892 
872 893 873 933 912 932 913 952 972 
973 953 992 993 1013 1012 1033 1032 1052 
1053 1074 1075 1094 1095 1115 1134 1135 1114 
1174 1154 1175 1155 1195 1215 1214 1194 1235 
1254 1255 1275 1234 1295 1274 1315 1294 1314 
1355 1334 1354 1335 1374 1394 1395 1375 1414 
1434 1435 1415 1475 1455 1454 1474 1514 1495 
1515 1494 1535 1555 1554 1534 1575 1594 1595 
1574 1634 1635 1615 1614 1655 15 14 1654 
35 74 55 75 54 34 115 94 114 
95 154 155 134 135 174 175 195 194 
235 215 234 214 275 274 254 255 295 
335 314 334 315 294 375 354 355 374 
414 415 394 395 434 454 435 455 475 
495 474 494 535 514 515 534 554 575 
574 555 615 595 614 594 635 654 655 
634 694 675 695 674 715 735 734 714 
754 775 774 755 795 814 815 794 835 
834 855 854 875 874 894 895 914 935 
934 915 955 954 975 974 1014 995 1015 
994 1034 1035 1054 1055 1076 1096 1077 1097 
1117 1116 1137 1157 1136 1156 1177 1176 1197 
1196 1217 1216 1237 1236 1256 1277 1276 1257 
1297 1296 1317 1316 1357 1356 1336 1337 1396 
1397 1376 1377 1416 1436 1437 1417 1457 1456 
1476 1477 1517 1497 1516 1496 1537 1536 1556 
1557 1617 1577 1576 1596 1597 1616 1656 1657 
1636 1637 37 16 17 36 77 57 76 
56 116 117 97 96 157 156 136 137 
177 196 176 197 257 236 217 216 237 
256 277 296 297 276 317 336 316 337 
377 357 376 356 397 417 396 416 457 
456 437 436 476 477 497 496 537 516 
517 536 557 556 577 576 596 617 597 
616 657 656 636 637 697 677 696 676 
736 737 716 717 757 776 756 777 816 
797 796 817 856 837 857 836 897 877 
876 896 937 916 917 936 956 957 977 
976 1016 1017 997 996 1057 1056 1036 1037 
1239 1098 1219 1118 1138 1259 1279 1158 1178 
1299 1198 1319 1339 1218 1238 1359 1399 1278 
1379 1258 1419 1298 1439 1318 1459 1499 1358 
1338 1479 1378 1398 1519 1539 1438 1579 1559 
1418 1619 1599 1478 1458 1498 1639 1538 1518 
1659 19 1558 1578 39 1618 59 1598 79 
119 1658 1638 99 159 38 18 139 58 
179 199 78 219 98 259 118 239 138 
158 279 299 218 319 198 339 178 359 
238 258 379 419 278 399 298 439 338 
459 318 499 479 378 358 398 519 539 
418 579 559 438 458 599 619 478 498 
679 538 659 639 518 699 578 719 558 
739 759 618 598 779 799 658 638 678 
819 839 698 859 879 718 738 758 919 
778 899 798 939 818 959 838 979 999 
858 878 898 1019 1039 918 938 1059 1079 
958 978 1099 998 1119 1139 1038 1159 1018 
1078 1199 1058 1179 2399 2398 2401 2400 2404 
2403 2405 2402 2409 2407 2408 2406 2410 2411 
2413 2412 2417 2415 2416 2414 2421 2419 2418 
2420 2422 2424 2426 2423 2427 2425 2431 2428 
2429 2430 2432 2433 2434 2435 2438 2436 2439 
2437 2443 2442 2440 2441 2445 2444 2447 2446 
2448 2451 2450 2449 2452 2454 2455 2453 2458 
2456 2459 2457 2463 2461 2460 2462 2467 2466 
2465 2464 2468 2469 2470 2471 2474 2475 2472 
2473 2476 2478 2479 2477 2481 2480 2482 2483 
2484 2485 2488 2487 2486 2489 2490 2491 2492 
2493 2497 2496 2495 2494 2498 2501 2499 2500 
2503 2504 2505 2502 2509 2508 2507 2506 2511 
2510 2513 2512 2514 2515 2516 2517 2521 2520 
2518 2519 2525 2522 2523 2524 2526 2529 2528 
2527 2531 2530 2533 2532 2534 2535 2536 2537 
2538 2539 2541 2542 2540 2543 2544 2545 2546 
2547 2548 2549 2550 2551 2555 2552 2553 2554 
2558 2556 2557 2559 2560 2561 2562 2563 
FIELD FieldData 7
r 3 2798 float
-0.5125 -0.4625 0 -0.5375 -0.4875 0 -0.5375 -0.4625 0 
-0.5125 -0.4875 0 -0.487805 -0.4875 0 -0.463415 -0.4875 0 
-0.463415 -0.4625 0 -0.487805 -0.4625 0 -0.439024 -0.4625 0 
-0.414634 -0.4875 0 -0.414634 -0.4625 0 -0.439024 -0.4875 0 
-0.390244 -0.4875 0 -0.365854 -0.4625 0 -0.365854 -0.4875 0 
-0.390244 -0.4625 0 -0.341463 -0.4875 0 -0.317073 -0.4625 0 
-0.317073 -0.4875 0 -0.341463 -0.4625 0 -0.268293 -0.4875 0 
-0.268293 -0.4625 0 -0.292683 -0.4875 0 -0.292683 -0.4625 0 
-0.243902 -0.4875 0 -0.219512 -0.4875 0 -0.243902 -0.4625 0 
-0.219512 -0.4625 0 -0.195122 -0.4625 0 -0.170732 -0.4875 0 
-0.170732 -0.4625 0 -0.195122 -0.4875 0 -0.121951 -0.4625 0 
-0.121951 -0.4875 0 -0.146341 -0.4625 0 -0.146341 -0.4875 0 
-0.0731707 -0.4625 0 -0.0731707 -0.4875 0 -0.097561 -0.4625 0 
-0.097561 -0.4875 0 -0.0243903 -0.4875 0 -0.0487805 -0.4875 0 
-0.0243903 -0.4625 0 -0.0487805 -0.4625 0 -1.86265e-08 -0.4875 0 
-1.86265e-08 -0.4625 0 0.0487805 -0.4625 0 0.0243902 -0.4875 0 
0.0243902 -0.4625 0 0.0487805 -0.4875 0 0.0731707 -0.4875 0 
0.0731707 -0.4625 0 0.097561 -0.4875 0 0.097561 -0.4625 0 
0.121951 -0.4875 0 0.121951 -0.4625 0 0.146341 -0.4625 0 
0.146341 -0.4875 0 0.170732 -0.4625 0 0.195122 -0.4875 0 
0.195122 -0.4625 0 0.170732 -0.4875 0 0.219512 -0.4875 0 
0.243902 -0.4625 0 0.243902 -0.4875 0 0.219512 -0.4625 0 
0.268293 -0.4875 0 0.268293 -0.4625 0 0.292683 -0.4875 0 
0.292683 -0.4625 0 0.317073 -0.4875 0 0.341463 -0.4625 0 
0.317073 -0.4625 0 0.341463 -0.4875 0 0.390244 -0.4875 0 
0.390244 -0.4625 0 0.365854 -0.4875 0 0.365854 -0.4625 0 
0.414634 -0.4875 0 0.414634 -0.4625 0 0.439024 -0.4875 0 
0.439024 -0.4625 0 0.487805 -0.4625 0 0.487805 -0.4875 0 
0.463415 -0.4625 0 0.463415 -0.4875 0 0.5125 -0.4625 0 
0.5375 -0.4875 0 0.5125 -0.4875 0 0.5375 -0.4625 0 
-0.5375 -0.4125 0 -0.5375 -0.4375 0 -0.5125 -0.4125 0 
-0.5125 -0.4375 0 -0.487892 -0.437285 0 -0.463604 -0.411897 0 
-0.463526 -0.437194 0 -0.487913 -0.412082 0 -0.415029 -0.437258 0 
-0.439394 -0.411881 0 -0.439266 -0.437223 0 -0.41522 -0.411974 0 
-0.366595 -0.412316 0 -0.36639 -0.437372 0 -0.390743 -0.43733 0 
-0.390968 -0.412165 0 -0.317469 -0.437447 0 -0.341956 -0.437437 0 
-0.342089 -0.412507 0 -0.317479 -0.412576 0 -0.26808 -0.412652 0 
-0.268375 -0.437469 0 -0.29293 -0.437512 0 -0.292793 -0.412732 0 
-0.219188 -0.437565 0 -0.243348 -0.412791 0 -0.243822 -0.437517 0 
-0.218515 -0.412931 0 -0.193639 -0.412897 0 -0.168785 -0.412913 0 
-0.169888 -0.43756 0 -0.194527 -0.437547 0 -0.145236 -0.437587 0 
-0.119063 -0.412979 0 -0.120574 -0.437597 0 -0.14393 -0.412968 0 
-0.0959251 -0.437613 0 -0.0942108 -0.412988 0 -0.0712864 -0.437633 0 
-0.0693788 -0.413002 0 -0.022046 -0.437664 0 -0.0466582 -0.437651 0 
-0.0445706 -0.41301 0 -0.0197896 -0.413009 0 0.00495683 -0.413003 0 
0.0025475 -0.437675 0 0.0271225 -0.437682 0 0.0296638 -0.41299 0 
0.054329 -0.412966 0 0.0789472 -0.412933 0 0.0762079 -0.437678 0 
0.0516767 -0.437682 0 0.149647 -0.437641 0 0.100715 -0.437669 0 
0.103516 -0.412892 0 0.128032 -0.412845 0 0.125195 -0.437656 0 
0.174069 -0.437627 0 0.152495 -0.412794 0 0.198464 -0.437612 0 
0.176904 -0.412741 0 0.201254 -0.412684 0 0.249768 -0.412556 0 
0.247149 -0.437576 0 0.222825 -0.437593 0 0.225541 -0.412618 0 
0.298053 -0.41244 0 0.273942 -0.412508 0 0.295706 -0.43755 0 
0.271443 -0.437564 0 0.344101 -0.437512 0 0.319926 -0.43753 0 
0.322092 -0.412358 0 0.346049 -0.412272 0 0.392229 -0.437428 0 
0.369906 -0.412128 0 0.36821 -0.437472 0 0.393656 -0.411996 0 
0.440148 -0.437433 0 0.416207 -0.437426 0 0.417333 -0.411958 0 
0.440923 -0.411901 0 0.464549 -0.412111 0 0.464116 -0.43745 0 
0.48831 -0.437764 0 0.48838 -0.412657 0 0.5125 -0.4125 0 
0.5375 -0.4375 0 0.5375 -0.4125 0 0.5125 -0.4375 0 
-0.5125 -0.3625 0 -0.5375 -0.3625 0 -0.5125 -0.3875 0 
-0.5375 -0.3875 0 -0.463636 -0.386547 0 -0.487926 -0.386847 0 
-0.487952 -0.361587 0 -0.463707 -0.361171 0 -0.415338 -0.386646 0 
-0.415555 -0.361264 0 -0.439598 -0.361062 0 -0.43947 -0.3865 0 
-0.391104 -0.387013 0 -0.391361 -0.361867 0 -0.366696 -0.387318 0 
-0.366926 -0.362374 0 -0.342267 -0.362965 0 -0.317384 -0.387845 0 
-0.317436 -0.363239 0 -0.342111 -0.387685 0 -0.292502 -0.363596 0 
-0.267561 -0.363438 0 -0.267716 -0.387987 0 -0.292562 -0.388102 0 
-0.217827 -0.388484 0 -0.242832 -0.388245 0 -0.217405 -0.3642 0 
-0.242557 -0.363856 0 -0.192215 -0.364137 0 -0.192775 -0.38844 0 
-0.167754 -0.388445 0 -0.167071 -0.364114 0 -0.116816 -0.364207 0 
-0.141945 -0.364213 0 -0.142742 -0.388525 0 -0.117725 -0.388534 0 
-0.0666601 -0.364145 0 -0.0927296 -0.388533 0 -0.09172 -0.364181 0 
-0.0677619 -0.388529 0 -0.0179423 -0.388487 0 -0.0416453 -0.364087 0 
-0.0166865 -0.364018 0 -0.0428316 -0.388515 0 0.0330551 -0.363807 0 
0.0316832 -0.388388 0 0.00689936 -0.388443 0 0.00821815 -0.363922 0 
0.0564069 -0.388317 0 0.0825054 -0.363528 0 0.0810674 -0.388232 0 
0.0578179 -0.363677 0 0.10566 -0.388137 0 0.130184 -0.388031 0 
0.107112 -0.363364 0 0.131631 -0.363187 0 0.154636 -0.387918 0 
0.156062 -0.362997 0 0.1804 -0.362798 0 0.17901 -0.3878 0 
0.227518 -0.387538 0 0.204649 -0.362593 0 0.203303 -0.387673 0 
0.228818 -0.362389 0 0.251665 -0.38742 0 0.275738 -0.387302 0 
0.299721 -0.387149 0 0.252909 -0.362196 0 0.276903 -0.361986 0 
0.30079 -0.361727 0 0.32361 -0.386982 0 0.347409 -0.386796 0 
0.34827 -0.361175 0 0.32458 -0.36146 0 0.394678 -0.386313 0 
0.371093 -0.386531 0 0.371861 -0.360794 0 0.395374 -0.360486 0 
0.418161 -0.386177 0 0.441911 -0.359857 0 0.441521 -0.386044 0 
0.418759 -0.360201 0 0.488467 -0.387367 0 0.464815 -0.386365 0 
0.488475 -0.36198 0 0.464966 -0.360338 0 0.5375 -0.3625 0 
0.5375 -0.3875 0 0.5125 -0.3875 0 0.5125 -0.3625 0 
-0.5125 -0.3375 0 -0.5375 -0.3125 0 -0.5375 -0.3375 0 
-0.5125 -0.3125 0 -0.487959 -0.336296 0 -0.463723 -0.335752 0 
-0.463701 -0.310316 0 -0.487948 -0.311014 0 -0.439764 -0.309858 0 
-0.415754 -0.33579 0 -0.439685 -0.335531 0 -0.415996 -0.310203 0 
-0.367181 -0.312763 0 -0.391585 -0.336747 0 -0.391832 -0.311691 0 
-0.36707 -0.337506 0 -0.317159 -0.314418 0 -0.342266 -0.313879 0 
-0.342301 -0.338352 0 -0.317337 -0.338756 0 -0.267251 -0.338978 0 
-0.291989 -0.314895 0 -0.266885 -0.314595 0 -0.292283 -0.339197 0 
-0.241594 -0.315597 0 -0.216047 -0.316098 0 -0.242114 -0.339626 0 
-0.216785 -0.340062 0 -0.165274 -0.315706 0 -0.191458 -0.339951 0 
-0.190574 -0.315862 0 -0.16622 -0.339881 0 -0.141004 -0.340015 0 
-0.115768 -0.339983 0 -0.114665 -0.315855 0 -0.140002 -0.315913 0 
-0.0654647 -0.339841 0 -0.0894041 -0.315699 0 -0.0905901 -0.33991 0 
-0.0642291 -0.315593 0 -0.040384 -0.339723 0 -0.0153782 -0.339593 0 
-0.0140204 -0.315194 0 -0.0390852 -0.315411 0 0.00956171 -0.339439 0 
0.0109471 -0.314973 0 0.034434 -0.339252 0 0.0358403 -0.314708 0 