# vtk DataFile Version 4.0
vtk output
ASCII
DATASET POLYDATA
FIELD FieldData 4
domain 1 3 string
domain_min:-20|-15
domain_max:20|15
cell_size:0.05

variables 1 2 string
dt:0.000372678
T:0.835155

constants 1 10 string
xsize:2
ysize:1
csize:0.05
dx:0.0238095
h:0.025
rho0:1000
mass:0.566894
g:1|0
c:13.4164
CFL:0.2

functions 1 8 string
time:T=(T+dt)
continuity:rho_dot=((-(rho*sph_D00(v,mass,rho,Wp52220)))+(((0.1*c)*h)*sph_L00(rho,mass,rho,Wp52220)))
irho:rho=(rho+int1((rho_dot,dt))
EOS:p=(((c^2)*(rho-rho0))+10000)
euler:a=if((gid,(0*v),(((-((1/rho)*sph_G11(p,mass,rho,Wp52220)))+(0.01*sph_L00(v,mass,rho,Wp52220)))+g))
vel:v=(v+int1((a,dt))
pos:r=(r+int1((v,dt))
new_dt:dt=(CFL*min((sqrt(((h/fmax(magnitude((a)))),(h/c)))

POINTS 2798 float
-0.5125 -0.4625 0 -0.5375 -0.4875 0 -0.5375 -0.4625 0 
-0.5125 -0.4875 0 -0.487805 -0.4875 0 -0.487805 -0.4625 0 
-0.463415 -0.4875 0 -0.463415 -0.4625 0 -0.414634 -0.4625 0 
-0.439024 -0.4625 0 -0.414634 -0.4875 0 -0.439024 -0.4875 0 
-0.365854 -0.4625 0 -0.365854 -0.4875 0 -0.390244 -0.4875 0 
-0.390244 -0.4625 0 -0.341463 -0.4625 0 -0.317073 -0.4875 0 
-0.317073 -0.4625 0 -0.341463 -0.4875 0 -0.268293 -0.4875 0 
-0.292683 -0.4625 0 -0.292683 -0.4875 0 -0.268293 -0.4625 0 
-0.243902 -0.4625 0 -0.219512 -0.4875 0 -0.243902 -0.4875 0 
-0.219512 -0.4625 0 -0.195122 -0.4875 0 -0.170732 -0.4625 0 
-0.195122 -0.4625 0 -0.170732 -0.4875 0 -0.146341 -0.4625 0 
-0.121951 -0.4875 0 -0.121951 -0.4625 0 -0.146341 -0.4875 0 
-0.0731707 -0.4625 0 -0.0731707 -0.4875 0 -0.097561 -0.4625 0 
-0.097561 -0.4875 0 -1.86265e-08 -0.4625 0 -1.86265e-08 -0.4875 0 
-0.0487805 -0.4875 0 -0.0487805 -0.4625 0 -0.0243903 -0.4875 0 
-0.0243903 -0.4625 0 0.0487805 -0.4625 0 0.0243902 -0.4625 0 
0.0487805 -0.4875 0 0.0243902 -0.4875 0 0.0731707 -0.4875 0 
0.097561 -0.4875 0 0.097561 -0.4625 0 0.0731707 -0.4625 0 
0.146341 -0.4875 0 0.121951 -0.4625 0 0.146341 -0.4625 0 
0.121951 -0.4875 0 0.170732 -0.4625 0 0.195122 -0.4625 0 
0.170732 -0.4875 0 0.195122 -0.4875 0 0.219512 -0.4875 0 
0.219512 -0.4625 0 0.243902 -0.4875 0 0.243902 -0.4625 0 
0.292683 -0.4875 0 0.268293 -0.4625 0 0.268293 -0.4875 0 
0.292683 -0.4625 0 0.317073 -0.4875 0 0.317073 -0.4625 0 
0.341463 -0.4625 0 0.341463 -0.4875 0 0.365854 -0.4875 0 
0.390244 -0.4875 0 0.365854 -0.4625 0 0.390244 -0.4625 0 
0.414634 -0.4625 0 0.439024 -0.4875 0 0.414634 -0.4875 0 
0.439024 -0.4625 0 0.487805 -0.4875 0 0.487805 -0.4625 0 
0.463415 -0.4875 0 0.463415 -0.4625 0 0.5375 -0.4625 0 
0.5125 -0.4625 0 0.5375 -0.4875 0 0.5125 -0.4875 0 
-0.5375 -0.4375 0 -0.5125 -0.4375 0 -0.5375 -0.4125 0 
-0.5125 -0.4125 0 -0.465538 -0.434618 0 -0.487909 -0.437323 0 
-0.488517 -0.411587 0 -0.466849 -0.405181 0 -0.445004 -0.41196 0 
-0.442588 -0.437845 0 -0.421237 -0.410068 0 -0.418876 -0.435476 0 
-0.396004 -0.438887 0 -0.361996 -0.405941 0 -0.379611 -0.423212 0 
-0.363457 -0.438683 0 -0.399495 -0.407506 0 -0.340712 -0.412569 0 
-0.339761 -0.436789 0 -0.315622 -0.437233 0 -0.316922 -0.411012 0 
-0.294274 -0.409462 0 -0.292511 -0.436386 0 -0.271855 -0.409935 0 
-0.269564 -0.43669 0 -0.223741 -0.436585 0 -0.246573 -0.436565 0 
-0.249465 -0.409634 0 -0.227314 -0.409482 0 -0.20494 -0.40994 0 
-0.200793 -0.436661 0 -0.178108 -0.436347 0 -0.182559 -0.40919 0 
-0.155237 -0.43703 0 -0.160176 -0.410196 0 -0.137281 -0.411986 0 
-0.11322 -0.413661 0 -0.13134 -0.437669 0 -0.106343 -0.438115 0 
-0.054847 -0.438283 0 -0.0807161 -0.438252 0 -0.0625877 -0.414797 0 
-0.0881438 -0.41447 0 -0.0282886 -0.438592 0 -0.00175102 -0.438514 0 
-0.0361135 -0.416013 0 -0.00917546 -0.415982 0 0.0245354 -0.438435 0 
0.0445147 -0.416414 0 0.0175467 -0.41551 0 0.07846 -0.438874 0 
0.072004 -0.416982 0 0.0513537 -0.438769 0 0.127708 -0.416298 0 
0.105814 -0.439132 0 0.132779 -0.438785 0 0.10022 -0.417369 0 
0.184717 -0.438465 0 0.179675 -0.415378 0 0.158762 -0.438151 0 
0.153741 -0.414376 0 0.236908 -0.438206 0 0.206392 -0.415922 0 
0.232468 -0.414771 0 0.210956 -0.438735 0 0.262558 -0.438456 0 
0.287981 -0.438092 0 0.283833 -0.414379 0 0.258447 -0.415009 0 
0.335352 -0.41418 0 0.313287 -0.438192 0 0.338464 -0.437928 0 
0.30958 -0.414643 0 0.361135 -0.414226 0 0.388269 -0.437894 0 
0.363454 -0.438048 0 0.386595 -0.413763 0 0.413224 -0.43818 0 
0.438374 -0.438192 0 0.437676 -0.414483 0 0.412064 -0.414417 0 
0.487916 -0.413954 0 0.462953 -0.413494 0 0.488041 -0.438128 0 
0.463249 -0.437815 0 0.5125 -0.4375 0 0.5375 -0.4375 0 
0.5125 -0.4125 0 0.5375 -0.4125 0 -0.5375 -0.3625 0 
-0.5125 -0.3875 0 -0.5125 -0.3625 0 -0.5375 -0.3875 0 
-0.489118 -0.357449 0 -0.467493 -0.375388 0 -0.488633 -0.384773 0 
-0.425534 -0.357863 0 -0.422843 -0.384142 0 -0.401635 -0.376352 0 
-0.445864 -0.38503 0 -0.44853 -0.356905 0 -0.382745 -0.359703 0 
-0.381709 -0.390917 0 -0.362771 -0.374635 0 -0.319458 -0.385042 0 
-0.344833 -0.355692 0 -0.34208 -0.385307 0 -0.322741 -0.358887 0 
-0.300323 -0.35487 0 -0.27773 -0.355448 0 -0.296724 -0.382081 0 
-0.255487 -0.354825 0 -0.252135 -0.382265 0 -0.274382 -0.382744 0 
-0.233357 -0.354253 0 -0.230093 -0.381833 0 -0.207868 -0.382813 0 
-0.210932 -0.355544 0 -0.165407 -0.355978 0 -0.163012 -0.382903 0 
-0.185507 -0.382013 0 -0.188369 -0.355121 0 -0.11848 -0.363233 0 
-0.142293 -0.358687 0 -0.140393 -0.385362 0 -0.116818 -0.388451 0 
-0.0677656 -0.366998 0 -0.0669071 -0.390828 0 -0.0921159 -0.390216 0 
-0.0934353 -0.36616 0 -0.0149882 -0.393309 0 -0.041912 -0.369503 0 
-0.0411349 -0.392897 0 -0.015936 -0.37003 0 0.0112307 -0.392684 0 
0.0378332 -0.393717 0 0.0352767 -0.370427 0 0.00975529 -0.369165 0 
0.0872332 -0.373716 0 0.0610344 -0.371744 0 0.0645532 -0.394892 0 
0.0921918 -0.396065 0 0.0850824 -0.350408 0 0.113378 -0.37219 0 
0.119692 -0.394519 0 0.13864 -0.368525 0 0.145997 -0.391487 0 
0.173018 -0.392162 0 0.192646 -0.370876 0 0.199811 -0.393744 0 
0.165174 -0.369751 0 0.226931 -0.392013 0 0.218532 -0.370351 0 
0.246583 -0.369922 0 0.279534 -0.390412 0 0.273228 -0.367327 0 
0.253824 -0.391972 0 0.299598 -0.367133 0 0.324823 -0.368627 0 
0.331299 -0.391247 0 0.304854 -0.39136 0 0.358137 -0.391314 0 
0.352553 -0.369438 0 0.380027 -0.368291 0 0.38475 -0.390423 0 
0.437223 -0.391194 0 0.411131 -0.391114 0 0.435539 -0.368735 0 
0.407883 -0.36881 0 0.487965 -0.365725 0 0.488076 -0.389799 0 
0.462902 -0.389451 0 0.462305 -0.366015 0 0.5375 -0.3625 0 
0.5125 -0.3875 0 0.5375 -0.3875 0 0.5125 -0.3625 0 
-0.5125 -0.3125 0 -0.5125 -0.3375 0 -0.5375 -0.3125 0 
-0.5375 -0.3375 0 -0.469219 -0.344301 0 -0.468823 -0.31014 0 
-0.451961 -0.326185 0 -0.488992 -0.300262 0 -0.488996 -0.32871 0 
-0.429851 -0.305214 0 -0.430109 -0.33216 0 -0.408182 -0.319685 0 
-0.404385 -0.346962 0 -0.366775 -0.309937 0 -0.388852 -0.301591 0 
-0.384744 -0.329728 0 -0.364107 -0.342267 0 -0.326181 -0.332068 0 
-0.303968 -0.327976 0 -0.347016 -0.3236 0 -0.329505 -0.302954 0 
-0.306973 -0.302251 0 -0.28076 -0.328629 0 -0.25818 -0.327449 0 
-0.283019 -0.302217 0 -0.26 -0.300605 0 -0.214181 -0.302004 0 
-0.237086 -0.300115 0 -0.235724 -0.32703 0 -0.212969 -0.328634 0 
-0.167045 -0.304499 0 -0.189948 -0.328615 0 -0.190991 -0.302536 0 
-0.166405 -0.329899 0 -0.142446 -0.332916 0 -0.118139 -0.313811 0 
-0.142604 -0.307854 0 -0.118096 -0.338571 0 -0.0938323 -0.317614 0 
-0.0679636 -0.343133 0 -0.0930897 -0.3423 0 -0.0698483 -0.318066 0 
-0.0195336 -0.322714 0 -0.0422419 -0.346156 0 -0.0450121 -0.322324 0 
-0.0163629 -0.346462 0 0.0300666 -0.32219 0 0.00517036 -0.320244 0 
0.0338858 -0.346402 0 0.00873547 -0.344948 0 0.0817811 -0.326903 0 
0.0557592 -0.32397 0 0.053171 -0.300427 0 0.0591958 -0.347952 0 
0.0795931 -0.303473 0 0.131305 -0.319651 0 0.13488 -0.34417 0 
0.110463 -0.348509 0 0.107055 -0.32451 0 0.187003 -0.348804 0 
0.182928 -0.30373 0 0.160238 -0.346616 0 0.153503 -0.300466 0 
0.18372 -0.325911 0 0.157514 -0.322988 0 0.238456 -0.348081 0 
0.246008 -0.327142 0 0.210095 -0.324715 0 0.213968 -0.346353 0 
0.230051 -0.311076 0 0.296245 -0.345434 0 0.278786 -0.326098 0 
0.266468 -0.345772 0 0.262405 -0.307985 0 0.296914 -0.30924 0 
0.328221 -0.346704 0 0.312432 -0.328275 0 0.336841 -0.321004 0 
0.386869 -0.323575 0 0.353948 -0.346832 0 0.380772 -0.346159 0 
0.360529 -0.323645 0 0.366075 -0.300258 0 0.391565 -0.300063 0 
0.412956 -0.324817 0 0.416777 -0.301591 0 0.442325 -0.301431 0 
0.407993 -0.347119 0 0.439232 -0.324769 0 0.435705 -0.347106 0 
0.465023 -0.318405 0 0.488059 -0.341758 0 0.462759 -0.342808 0 
0.488845 -0.316846 0 0.5125 -0.3125 0 0.5375 -0.3375 0 
0.5125 -0.3375 0 0.5375 -0.3125 0 -0.5125 -0.2875 0 
-0.5375 -0.2875 0 -0.5125 -0.2625 0 -0.5375 -0.2625 0 
-0.4667 -0.277885 0 -0.488176 -0.273739 0 -0.448451 -0.261729 0 
-0.40957 -0.289472 0 -0.414122 -0.254716 0 -0.428573 -0.274882 0 
-0.449287 -0.293987 0 -0.351974 -0.262294 0 -0.392813 -0.270796 0 
-0.371946 -0.279535 0 -0.308036 -0.276448 0 -0.350002 -0.291187 0 
-0.330267 -0.273553 0 -0.261209 -0.274087 0 -0.288844 -0.250888 0 
-0.284492 -0.276268 0 -0.23815 -0.273598 0 -0.215162 -0.275341 0 
-0.192064 -0.27657 0 -0.193816 -0.250611 0 -0.169639 -0.254235 0 
-0.168008 -0.279382 0 -0.119381 -0.288484 0 -0.143633 -0.282802 0 
-0.145235 -0.257238 0 -0.121414 -0.262564 0 -0.0743075 -0.267032 0 
-0.0716443 -0.292517 0 -0.0978339 -0.266261 0 -0.0954774 -0.292152 0 
-0.0212122 -0.298885 0 -0.0490805 -0.273825 0 -0.0232504 -0.25274 0 
-0.023187 -0.275346 0 -0.0467407 -0.298084 0 -0.0500249 -0.250008 0 
0.00354902 -0.295021 0 0.0279167 -0.29778 0 0.0268655 -0.272729 0 
0.00196266 -0.270006 0 0.0759399 -0.280023 0 0.0553972 -0.251576 0 
0.0509947 -0.275844 0 0.0792312 -0.255701 0 0.10448 -0.299824 0 
0.116831 -0.262186 0 0.140199 -0.275557 0 0.100818 -0.275447 0 
0.127104 -0.294199 0 0.141908 -0.251434 0 0.194869 -0.255615 0 
0.195262 -0.27735 0 0.16619 -0.260277 0 0.169195 -0.282518 0 
0.246853 -0.290147 0 0.207403 -0.298584 0 0.221045 -0.258661 0 
0.247244 -0.260597 0 0.225186 -0.281207 0 0.280683 -0.291185 0 
0.266299 -0.271797 0 0.28832 -0.260552 0 0.347402 -0.270243 0 
0.323656 -0.269777 0 0.303539 -0.279569 0 0.319919 -0.299759 0 
[...]
POINT_DATA 2798
SCALARS id float
LOOKUP_TABLE default
2621 2600 2601 2620 2640 2641 2642 2643 2647 
2645 2646 2644 2651 2650 2648 2649 2653 2654 
2655 2652 2658 2657 2656 2659 2661 2662 2660 
2663 2664 2667 2665 2666 2669 2670 2671 2668 
2675 2674 2673 2672 2681 2680 2676 2677 2678 
2679 2685 2683 2684 2682 2686 2688 2689 2687 
2692 2691 2693 2690 2695 2697 2694 2696 2698 
2699 2700 2701 2704 2703 2702 2705 2706 2707 
2709 2708 2710 2712 2711 2713 2715 2716 2714 
2717 2720 2721 2718 2719 2743 2723 2742 2722 
2602 2622 2603 2623 1678 1660 1661 1679 1697 
1696 1715 1714 1732 1769 1750 1768 1733 1787 
1786 1804 1805 1823 1822 1841 1840 1876 1858 
1859 1877 1895 1894 1912 1913 1930 1931 1949 
1967 1948 1966 2002 1984 2003 1985 2020 2038 
2021 2039 2056 2075 2057 2092 2093 2074 2129 
2110 2128 2111 2164 2165 2146 2147 2200 2183 
2201 2182 2218 2236 2237 2219 2273 2254 2272 
2255 2291 2308 2290 2309 2326 2344 2345 2327 
2381 2363 2380 2362 2724 2744 2725 2745 2605 
2624 2625 2604 1663 1680 1662 1717 1716 1734 
1698 1699 1752 1751 1770 1806 1789 1788 1807 
1825 1843 1824 1861 1860 1842 1879 1878 1896 
1897 1933 1932 1914 1915 1969 1951 1950 1968 
2005 2004 1986 1987 2040 2023 2022 2041 2058 
2076 2077 2059 2113 2095 2094 2112 2114 2131 
2130 2149 2148 2166 2185 2184 2167 2202 2203 
2221 2238 2239 2220 2257 2275 2274 2256 2292 
2293 2311 2310 2346 2328 2347 2329 2383 2382 
2364 2365 2747 2726 2746 2727 2627 2626 2607 
2606 1681 1682 1700 1665 1664 1719 1718 1736 
1735 1772 1754 1753 1771 1808 1826 1790 1809 
1827 1844 1862 1845 1863 1899 1881 1880 1898 
1935 1916 1917 1934 1952 1971 1953 1970 1989 
2006 1988 2007 2043 2024 2025 2042 2079 2061 
2078 2060 2115 2097 2098 2096 2116 2151 2150 
2132 2133 2186 2188 2168 2170 2187 2169 2222 
2223 2205 2204 2206 2258 2241 2240 2224 2242 
2276 2259 2277 2313 2294 2312 2295 2296 2314 
2331 2332 2350 2330 2349 2348 2367 2384 2366 
2385 2729 2748 2728 2749 2628 2608 2629 2609 
1683 1666 1702 1737 1738 1720 1701 1792 1755 
1773 1828 1791 1810 1864 1847 1846 1882 1900 
1918 1919 1937 1936 1972 1954 1955 1973 2009 
2008 1991 1990 2044 2027 2046 2045 2026 2028 
2062 2080 2081 2063 2117 2100 2099 2118 2134 
2136 2153 2135 2152 2137 2155 2172 2154 2171 
2207 2189 2173 2191 2190 2225 2208 2226 2279 
2261 2243 2260 2278 2298 2297 2315 2333 2316 
2334 2351 2369 2387 2368 2386 2751 2750 2730 
2731 2610 2611 2630 2631 1685 1668 1667 1684 
1703 1739 1722 1721 1793 1756 1774 1757 1775 
1830 1812 1829 1811 1866 1867 1865 1848 1884 
1883 1902 1885 1901 1938 1939 1920 1974 1957 
1956 1975 2011 1993 1992 2010 2029 2048 2047 
2030 2065 2082 2083 2064 2103 2119 2102 2101 
2105 2121 2120 2104 2122 2138 2140 2156 2139 
2123 2157 2192 2174 2227 2209 2263 2244 2262 
2245 2299 2282 2280 2281 2300 2335 2317 2370 
2353 2388 2352 2389 2733 2753 2732 2752 2613 
2632 2633 2612 1670 1669 1704 1686 1740 1723 
1741 1758 1777 1759 1776 1794 1832 1813 1814 
1795 1831 1849 1869 1850 1868 1886 1903 1923 
1904 1922 1941 1921 1958 1940 1959 1977 1976 
1994 2012 1995 1978 2013 1960 2014 2031 1979 
1996 1997 2015 2049 2084 2066 2067 2085 2032 
2050 2086 2069 2068 2033 2087 2106 2071 2070 
2088 2051 2053 2089 2141 2052 2159 2036 2158 
2175 2211 2210 2176 2193 2228 2264 2247 2265 
2246 2229 2283 2318 2336 2372 2390 2354 2371 
2755 2734 2754 2735 2634 2635 2614 2615 1706 
1687 1671 1705 1742 1725 1724 1743 1761 1778 
1779 1796 1760 1815 1816 1833 1851 1852 1834 
1870 1887 1905 1888 1871 1925 1889 1906 1907 
1924 1926 1909 1942 1943 1874 1927 80 1944 
1785 1961 1892 1962 1945 1980 1998 1910 1963 
1999 160 2017 1982 2016 1981 1857 2034 1946 
1964 1839 2035 180 2000 1 2107 1911 2124 
2177 2072 2194 2054 2125 2212 2230 2142 2284 
2266 2267 2195 2248 2373 2355 2391 2337 2301 
2737 2757 2736 2756 2637 2636 2616 2617 1690 
1688 1689 1672 1744 1708 1726 1707 1691 1780 
1727 1745 1762 1746 1781 1798 1763 1797 1783 
1817 1799 1854 1800 1835 1853 1855 1872 1748 
1836 1818 1890 1801 1819 1856 1837 1908 1873 
1731 1767 1891 1261 1749 1802 1713 1580 1600 
40 1361 1820 100 1803 1541 1928 120 1561 
20 60 1441 1838 140 1521 1481 1522 1893 
1581 1821 1362 1875 1929 2018 21 320 280 
2090 340 2178 2160 2213 2231 2285 2338 2319 
2759 2739 2758 2738 2564 2566 2567 2565 2571 
2569 2570 2568 2575 2573 2572 2574 2577 2579 
2578 2576 2581 2580 2582 2583 2586 2585 2584 
2587 2588 2591 2590 2589 2592 2595 2593 2594 
2598 2596 2597 2599 2638 2619 2639 2618 1673 
1674 1675 1710 1140 1676 1709 1120 1180 1711 
1728 1693 1692 1695 1220 1782 1280 1764 1694 
1340 1730 1765 1729 1380 1360 1500 1747 1480 
1040 1784 1712 1081 1440 1766 1560 1241 1141 
1420 1520 1460 1181 1161 1540 1122 1281 1221 
1201 1301 1222 1341 1321 1183 1242 1282 1262 
1620 1243 0 1640 1381 1401 1421 1461 1542 
1543 1402 1601 181 1502 1621 1947 240 220 
2302 2196 260 2143 2392 2249 2761 2740 2741 
2760 2762 2764 2763 2765 2768 2767 2769 2766 
2771 2773 2770 2772 2777 2775 2776 2774 2781 
2780 2779 2778 2784 2782 2785 2783 2787 2786 
2789 2788 2790 2792 2791 2793 2796 2797 2795 
2794 2395 500 2360 2306 640 2341 2235 2324 
2377 2342 2396 2217 2253 840 2199 2307 680 
461 421 800 481 660 2325 2271 700 2343 
2361 740 720 561 2378 542 482 860 2379 
2397 1020 2289 761 721 1080 1060 780 880 
820 1100 900 722 1160 920 661 762 682 
881 1677 940 1200 1300 1240 980 1260 861 
1000 802 782 1001 921 901 822 1041 941 
1320 862 843 981 1101 1061 1400 922 903 
1121 1002 942 1021 1102 962 1062 1082 982 
1063 1022 1142 1043 1083 1202 1162 1182 1163 
1103 1044 1184 1143 1203 1123 1144 1223 1302 
1164 1263 1342 1283 1322 1204 1523 1442 1303 
1382 1483 1562 1501 1582 1482 1544 1641 300 
2320 2232 201 2356 200 2108 2214 2161 161 
2250 2179 2215 2126 2198 141 2303 2339 2162 
2374 2251 2357 2234 2393 2180 2216 2321 2055 
2252 2305 2375 2287 2323 2304 2270 2109 2376 
2358 2163 2269 2394 2359 420 2091 460 281 
2127 341 261 520 223 2288 321 282 2145 
540 302 580 2181 560 600 361 362 441 
620 381 401 462 382 323 442 342 363 
343 501 383 402 422 541 443 403 601 
463 521 423 522 581 582 621 760 641 
602 701 681 622 702 583 642 662 781 
643 960 703 683 801 623 664 821 841 
741 742 723 783 763 744 803 842 823 
804 784 961 824 882 902 844 883 943 
884 923 863 963 924 904 1003 983 1023 
964 1042 944 1004 984 1024 1045 1025 1064 
1084 1065 1124 1104 1105 1085 1224 1205 1145 
1185 1264 1363 1244 1225 1344 1343 1323 1284 
1383 1462 1364 1403 1422 1423 1365 1384 1563 
1404 1463 1503 1602 1564 1642 1524 81 41 
162 61 42 2268 121 2144 2197 2233 1965 
143 182 83 103 1983 360 23 2037 2019 
84 2001 2286 163 380 2073 440 2340 104 
400 480 2322 124 144 85 241 221 183 
222 202 203 165 184 301 242 204 263 
166 224 262 185 243 283 205 244 303 
264 245 225 324 284 322 304 344 364 
305 325 404 346 384 365 345 483 424 
405 425 523 502 444 464 543 504 503 
484 562 544 524 564 563 584 565 603 
624 604 605 663 585 625 645 644 684 
704 665 705 743 685 764 725 724 766 
785 765 745 805 825 806 786 865 866 
846 864 845 905 885 886 906 925 926 
945 946 985 986 966 965 1026 1066 1046 
1005 1087 1106 1086 1125 1067 1126 1186 1165 
1146 1166 1245 1206 1207 1227 1226 1265 1304 
1285 1305 1324 1325 1366 1345 1346 1424 1386 
1385 1405 1443 1464 1444 1425 1484 1504 1545 
1583 1622 2 1584 1603 102 122 1623 142 
101 3 1643 22 82 4 1644 63 43 
62 64 123 24 45 25 44 67 105 
66 65 46 145 86 106 146 126 164 
125 148 167 147 127 187 207 206 186 
246 227 265 226 267 285 266 306 287 
307 286 327 347 366 326 406 386 385 
407 445 426 465 427 446 485 466 486 
505 506 525 546 547 545 526 586 567 
587 606 607 566 647 626 646 627 686 
667 666 687 707 706 726 727 767 747 
768 746 807 826 788 787 827 847 867 
868 908 888 887 907 948 927 947 928 
968 987 988 967 1007 1027 1047 1048 1006 
1088 1107 1089 1068 1127 1147 1128 1108 1187 
1148 1167 1188 1228 1209 1229 1208 1247 1248 
1266 1267 1246 1286 1306 1287 1307 1326 1347 
1368 1327 1367 1406 1387 1407 1426 1446 1466 
1465 1445 1525 1485 1486 1505 1526 1546 1565 
1506 1604 1566 1624 1585 1586 1606 1625 1605 
5 1646 1626 1645 6 7 27 26 9 
28 29 48 47 68 49 69 87 88 
107 89 108 109 149 129 128 189 168 
169 188 229 208 209 228 269 249 268 
248 247 288 308 289 309 329 349 348 
328 368 387 388 367 408 409 428 429 
448 467 468 447 487 507 488 508 528 
527 549 569 548 568 609 608 588 589 
628 649 648 629 668 688 689 669 729 
708 728 709 749 748 769 808 789 809 
848 829 870 849 869 828 890 910 909 
889 930 949 929 950 989 970 990 969 
1008 1029 1009 1028 1069 1049 1070 1090 1110 
1130 1129 1109 1150 1149 1169 1168 1189 1210 
1231 1230 1269 1249 1268 1250 1308 1309 1289 
1288 1349 1369 1348 1328 1329 1427 1388 1389 
1408 1429 1447 1428 1409 1487 1448 1468 1467 
1449 1507 1508 1488 1528 1548 1547 1527 1568 
1587 1588 1607 1567 1627 1628 1608 1647 8 
1649 1648 10 51 30 31 91 71 70 
50 110 111 131 90 171 151 150 130 
211 170 190 191 210 230 250 251 231 
290 291 270 271 311 310 330 331 350 
371 370 351 369 389 390 410 411 450 
430 451 431 471 470 490 469 449 510 
489 530 509 529 571 551 570 550 610 
590 611 591 631 651 650 630 690 670 
691 671 711 730 731 710 751 770 750 
771 810 811 791 790 831 830 871 850 
851 911 891 892 912 932 951 931 952 
972 971 991 1010 1031 1030 1011 1050 1071 
1091 1051 1092 1132 1131 1112 1111 1151 1171 
1170 1152 1190 1191 1232 1212 1211 1251 1270 
1252 1271 1290 1291 1310 1311 1330 1350 1351 
1331 1370 1371 1391 1390 1411 1431 1410 1430 
1470 1469 1451 1450 1490 1509 1491 1489 1510 
1530 1529 1550 1549 1531 1589 1569 1590 1570 
1609 1630 1629 1631 1611 1610 1651 1650 11 
32 53 52 33 73 92 93 72 113 
132 133 112 152 153 172 173 213 192 
212 193 232 233 253 252 273 292 293 
272 313 312 332 333 372 353 352 373 
392 413 391 412 452 433 432 453 492 
473 472 491 493 532 531 512 511 552 
553 573 572 612 593 592 613 632 652 
633 653 692 693 673 672 713 732 733 
712 753 752 773 772 793 792 812 813 
872 833 853 832 852 873 913 893 953 
933 973 993 992 1013 1012 1032 1033 1052 
1053 1073 1072 1134 1093 1114 1113 1133 1153 
1172 1173 1154 1193 1192 1213 1234 1233 1253 
1272 1273 1292 1293 1312 1313 1332 1333 1352 
1353 1393 1372 1392 1373 1412 1413 1432 1433 
1471 1472 1473 1453 1452 1492 1513 1493 1511 
1512 1532 1551 1553 1552 1533 1573 1572 1591 
1592 1593 1571 1612 1613 1632 1633 13 1652 
12 1653 34 54 55 35 75 94 95 
74 135 134 114 115 154 155 195 175 
174 194 215 235 214 275 234 274 254 
255 295 294 315 314 355 354 334 335 
374 394 395 375 415 414 435 393 455 
475 454 434 474 495 494 515 534 513 
535 514 533 555 574 554 575 595 594 
615 614 634 654 655 635 675 674 694 
695 715 714 734 735 755 774 775 754 
794 835 814 815 795 834 874 854 875 
855 914 895 915 894 955 935 954 934 
995 975 994 974 1015 1035 1034 1014 1055 
1075 1095 1074 1054 1094 1135 1115 1136 1195 
1155 1194 1174 1175 1215 1235 1214 1254 1275 
1255 1274 1295 1315 1294 1314 1335 1354 1355 
1334 1375 1394 1395 1374 1415 1434 1435 1414 
1475 1455 1454 1474 1494 1514 1515 1495 1554 
1555 1534 1535 1575 1595 1594 1574 1634 1635 
1614 1615 15 1654 1655 14 56 77 36 
57 97 76 96 117 116 157 137 136 
156 176 197 196 177 237 216 236 217 
277 256 276 257 317 316 296 297 356 
337 357 336 377 376 396 397 416 417 
437 436 457 477 476 456 516 517 496 
497 556 536 557 537 597 576 596 577 
637 617 616 656 677 636 657 676 717 
696 697 737 757 736 716 756 796 797 
776 777 837 836 816 817 857 876 856 
877 896 917 897 937 916 956 957 936 
977 997 976 1017 1016 996 1056 1036 1037 
1057 1096 1097 1117 1077 1076 1137 1116 1157 
1156 1177 1197 1196 1176 1237 1236 1216 1217 
1277 1276 1257 1256 1316 1317 1296 1297 1337 
1336 1377 1357 1356 1376 1417 1396 1397 1457 
1416 1436 1437 1456 1477 1476 1497 1496 1517 
1537 1516 1536 1557 1577 1556 1576 1597 1596 
1617 1636 1637 1657 1616 1656 16 37 17 
218 639 659 178 198 699 238 679 258 
739 298 719 278 779 759 318 338 819 
378 358 799 839 398 859 418 879 438 
899 458 939 919 478 979 518 959 498 
558 538 1039 1019 999 578 1079 1059 598 
1119 618 638 1099 1159 1139 658 678 698 
718 1199 1179 1219 1239 738 758 798 1279 
1299 778 1259 818 1319 838 858 1339 1359 
898 1379 878 1419 938 1399 918 1439 1459 
978 958 1479 998 1018 1499 1519 1078 1058 
1559 1038 1539 1118 1098 1579 1599 1158 1639 
1619 1138 1659 1178 19 1198 1218 39 1238 
59 79 1258 1278 1298 99 119 1318 139 
1338 1358 159 1378 179 199 1418 1398 219 
259 1458 239 1438 1498 299 1478 279 339 
1518 1538 319 1558 379 359 1578 1598 419 
399 1618 1638 459 439 1658 38 479 499 
18 519 539 58 78 98 118 559 579 
138 599 158 619 2399 2400 2398 2401 2404 
2403 2405 2402 2409 2408 2406 2407 2413 2412 
2411 2410 2416 2414 2415 2417 2420 2421 2419 
2418 2425 2427 2424 2422 2426 2423 2429 2430 
2428 2431 2432 2433 2435 2434 2439 2436 2438 
2437 2443 2440 2441 2442 2444 2447 2446 2445 
2451 2449 2450 2448 2455 2453 2454 2452 2459 
2457 2458 2456 2463 2461 2460 2462 2467 2465 
2464 2466 2469 2468 2470 2471 2473 2472 2474 
2475 2476 2477 2481 2478 2480 2479 2485 2484 
2483 2482 2488 2487 2489 2486 2493 2492 2490 
2491 2497 2496 2495 2494 2498 2499 2500 2501 
2502 2505 2503 2504 2509 2508 2507 2506 2511 
2510 2513 2512 2516 2514 2515 2517 2519 2521 
2518 2520 2525 2522 2523 2524 2527 2528 2529 
2526 2532 2533 2531 2530 2534 2535 2536 2537 
2538 2539 2542 2543 2540 2541 2544 2545 2546 
2547 2548 2551 2550 2549 2554 2555 2553 2552 
2558 2556 2557 2559 2560 2561 2562 2563 
FIELD FieldData 7
r 3 2798 float
-0.5125 -0.4625 0 -0.5375 -0.4875 0 -0.5375 -0.4625 0 
-0.5125 -0.4875 0 -0.487805 -0.4875 0 -0.487805 -0.4625 0 
-0.463415 -0.4875 0 -0.463415 -0.4625 0 -0.414634 -0.4625 0 
-0.439024 -0.4625 0 -0.414634 -0.4875 0 -0.439024 -0.4875 0 
-0.365854 -0.4625 0 -0.365854 -0.4875 0 -0.390244 -0.4875 0 
-0.390244 -0.4625 0 -0.341463 -0.4625 0 -0.317073 -0.4875 0 
-0.317073 -0.4625 0 -0.341463 -0.4875 0 -0.268293 -0.4875 0 
-0.292683 -0.4625 0 -0.292683 -0.4875 0 -0.268293 -0.4625 0 
-0.243902 -0.4625 0 -0.219512 -0.4875 0 -0.243902 -0.4875 0 
-0.219512 -0.4625 0 -0.195122 -0.4875 0 -0.170732 -0.4625 0 
-0.195122 -0.4625 0 -0.170732 -0.4875 0 -0.146341 -0.4625 0 
-0.121951 -0.4875 0 -0.121951 -0.4625 0 -0.146341 -0.4875 0 
-0.0731707 -0.4625 0 -0.0731707 -0.4875 0 -0.097561 -0.4625 0 
-0.097561 -0.4875 0 -1.86265e-08 -0.4625 0 -1.86265e-08 -0.4875 0 
-0.0487805 -0.4875 0 -0.0487805 -0.4625 0 -0.0243903 -0.4875 0 
-0.0243903 -0.4625 0 0.0487805 -0.4625 0 0.0243902 -0.4625 0 
0.0487805 -0.4875 0 0.0243902 -0.4875 0 0.0731707 -0.4875 0 
0.097561 -0.4875 0 0.097561 -0.4625 0 0.0731707 -0.4625 0 
0.146341 -0.4875 0 0.121951 -0.4625 0 0.146341 -0.4625 0 
0.121951 -0.4875 0 0.170732 -0.4625 0 0.195122 -0.4625 0 
0.170732 -0.4875 0 0.195122 -0.4875 0 0.219512 -0.4875 0 
0.219512 -0.4625 0 0.243902 -0.4875 0 0.243902 -0.4625 0 
0.292683 -0.4875 0 0.268293 -0.4625 0 0.268293 -0.4875 0 
0.292683 -0.4625 0 0.317073 -0.4875 0 0.317073 -0.4625 0 
0.341463 -0.4625 0 0.341463 -0.4875 0 0.365854 -0.4875 0 
0.390244 -0.4875 0 0.365854 -0.4625 0 0.390244 -0.4625 0 
0.414634 -0.4625 0 0.439024 -0.4875 0 0.414634 -0.4875 0 
0.439024 -0.4625 0 0.487805 -0.4875 0 0.487805 -0.4625 0 
0.463415 -0.4875 0 0.463415 -0.4625 0 0.5375 -0.4625 0 
0.5125 -0.4625 0 0.5375 -0.4875 0 0.5125 -0.4875 0 
-0.5375 -0.4375 0 -0.5125 -0.4375 0 -0.5375 -0.4125 0 
-0.5125 -0.4125 0 -0.465538 -0.434618 0 -0.487909 -0.437323 0 
-0.488517 -0.411587 0 -0.466849 -0.405181 0 -0.445004 -0.41196 0 
-0.442588 -0.437845 0 -0.421237 -0.410068 0 -0.418876 -0.435476 0 
-0.396004 -0.438887 0 -0.361996 -0.405941 0 -0.379611 -0.423212 0 
-0.363457 -0.438683 0 -0.399495 -0.407506 0 -0.340712 -0.412569 0 
-0.339761 -0.436789 0 -0.315622 -0.437233 0 -0.316922 -0.411012 0 
-0.294274 -0.409462 0 -0.292511 -0.436386 0 -0.271855 -0.409935 0 
-0.269564 -0.43669 0 -0.223741 -0.436585 0 -0.246573 -0.436565 0 
-0.249465 -0.409634 0 -0.227314 -0.409482 0 -0.20494 -0.40994 0 
-0.200793 -0.436661 0 -0.178108 -0.436347 0 -0.182559 -0.40919 0 
-0.155237 -0.43703 0 -0.160176 -0.410196 0 -0.137281 -0.411986 0 
-0.11322 -0.413661 0 -0.13134 -0.437669 0 -0.106343 -0.438115 0 
-0.054847 -0.438283 0 -0.0807161 -0.438252 0 -0.0625877 -0.414797 0 
-0.0881438 -0.41447 0 -0.0282886 -0.438592 0 -0.00175102 -0.438514 0 
-0.0361135 -0.416013 0 -0.00917546 -0.415982 0 0.0245354 -0.438435 0 
0.0445147 -0.416414 0 0.0175467 -0.41551 0 0.07846 -0.438874 0 
0.072004 -0.416982 0 0.0513537 -0.438769 0 0.127708 -0.416298 0 
0.105814 -0.439132 0 0.132779 -0.438785 0 0.10022 -0.417369 0 
0.184717 -0.438465 0 0.179675 -0.415378 0 0.158762 -0.438151 0 
0.153741 -0.414376 0 0.236908 -0.438206 0 0.206392 -0.415922 0 
0.232468 -0.414771 0 0.210956 -0.438735 0 0.262558 -0.438456 0 
0.287981 -0.438092 0 0.283833 -0.414379 0 0.258447 -0.415009 0 
0.335352 -0.41418 0 0.313287 -0.438192 0 0.338464 -0.437928 0 
0.30958 -0.414643 0 0.361135 -0.414226 0 0.388269 -0.437894 0 
0.363454 -0.438048 0 0.386595 -0.413763 0 0.413224 -0.43818 0 
0.438374 -0.438192 0 0.437676 -0.414483 0 0.412064 -0.414417 0 
0.487916 -0.413954 0 0.462953 -0.413494 0 0.488041 -0.438128 0 
0.463249 -0.437815 0 0.5125 -0.4375 0 0.5375 -0.4375 0 
0.5125 -0.4125 0 0.5375 -0.4125 0 -0.5375 -0.3625 0 
-0.5125 -0.3875 0 -0.5125 -0.3625 0 -0.5375 -0.3875 0 
-0.489118 -0.357449 0 -0.467493 -0.375388 0 -0.488633 -0.384773 0 
-0.425534 -0.357863 0 -0.422843 -0.384142 0 -0.401635 -0.376352 0 
-0.445864 -0.38503 0 -0.44853 -0.356905 0 -0.382745 -0.359703 0 
-0.381709 -0.390917 0 -0.362771 -0.374635 0 -0.319458 -0.385042 0 
-0.344833 -0.355692 0 -0.34208 -0.385307 0 -0.322741 -0.358887 0 
-0.300323 -0.35487 0 -0.27773 -0.355448 0 -0.296724 -0.382081 0 
-0.255487 -0.354825 0 -0.252135 -0.382265 0 -0.274382 -0.382744 0 
-0.233357 -0.354253 0 -0.230093 -0.381833 0 -0.207868 -0.382813 0 
-0.210932 -0.355544 0 -0.165407 -0.355978 0 -0.163012 -0.382903 0 
-0.185507 -0.382013 0 -0.188369 -0.355121 0 -0.11848 -0.363233 0 
-0.142293 -0.358687 0 -0.140393 -0.385362 0 -0.116818 -0.388451 0 
-0.0677656 -0.366998 0 -0.0669071 -0.390828 0 -0.0921159 -0.390216 0 
-0.0934353 -0.36616 0 -0.0149882 -0.393309 0 -0.041912 -0.369503 0 
-0.0411349 -0.392897 0 -0.015936 -0.37003 0 0.0112307 -0.392684 0 
0.0378332 -0.393717 0 0.0352767 -0.370427 0 0.00975529 -0.369165 0 
0.0872332 -0.373716 0 0.0610344 -0.371744 0 0.0645532 -0.394892 0 
0.0921918 -0.396065 0 0.0850824 -0.350408 0 0.113378 -0.37219 0 
0.119692 -0.394519 0 0.13864 -0.368525 0 0.145997 -0.391487 0 
0.173018 -0.392162 0 0.192646 -0.370876 0 0.199811 -0.393744 0 
0.165174 -0.369751 0 0.226931 -0.392013 0 0.218532 -0.370351 0 
0.246583 -0.369922 0 0.279534 -0.390412 0 0.273228 -0.367327 0 
0.253824 -0.391972 0 0.299598 -0.367133 0 0.324823 -0.368627 0 
0.331299 -0.391247 0 0.304854 -0.39136 0 0.358137 -0.391314 0 
0.352553 -0.369438 0 0.380027 -0.368291 0 0.38475 -0.390423 0 
0.437223 -0.391194 0 0.411131 -0.391114 0 0.435539 -0.368735 0 
0.407883 -0.36881 0 0.487965 -0.365725 0 0.488076 -0.389799 0 
0.462902 -0.389451 0 0.462305 -0.366015 0 0.5375 -0.3625 0 
0.5125 -0.3875 0 0.5375 -0.3875 0 0.5125 -0.3625 0 
-0.5125 -0.3125 0 -0.5125 -0.3375 0 -0.5375 -0.3125 0 
-0.5375 -0.3375 0 -0.469219 -0.344301 0 -0.468823 -0.31014 0 
-0.451961 -0.326185 0 -0.488992 -0.300262 0 -0.488996 -0.32871 0 
-0.429851 -0.305214 0 -0.430109 -0.33216 0 -0.408182 -0.319685 0 
-0.404385 -0.346962 0 -0.366775 -0.309937 0 -0.388852 -0.301591 0 
-0.384744 -0.329728 0 -0.364107 -0.342267 0 -0.326181 -0.332068 0 
-0.303968 -0.327976 0 -0.347016 -0.3236 0 -0.329505 -0.302954 0 
-0.306973 -0.302251 0 -0.28076 -0.328629 0 -0.25818 -0.327449 0 
-0.283019 -0.302217 0 -0.26 -0.300605 0 -0.214181 -0.302004 0 
-0.237086 -0.300115 0 -0.235724 -0.32703 0 -0.212969 -0.328634 0 
-0.167045 -0.304499 0 -0.189948 -0.328615 0 -0.190991 -0.302536 0 
-0.166405 -0.329899 0 -0.142446 -0.332916 0 -0.118139 -0.313811 0 
-0.142604 -0.307854 0 -0.118096 -0.338571 0 -0.0938323 -0.317614 0 
-0.0679636 -0.343133 0 -0.0930897 -0.3423 0 -0.0698483 -0.318066 0 
-0.0195336 -0.322714 0 -0.0422419 -0.346156 0 -0.0450121 -0.322324 0 
-0.0163629 -0.346462 0 0.0300666 -0.32219 0 0.00517036 -0.320244 0 
0.0338858 -0.346402 0 0.00873547 -0.344948 0 0.0817811 -0.326903 0 