# vtk DataFile Version 4.0
vtk output
ASCII
DATASET POLYDATA
FIELD FieldData 4
domain 1 3 string
domain_min:-20|-15
domain_max:20|15
cell_size:0.05

variables 1 2 string
dt:0.000372678
T:0.442751

constants 1 10 string
xsize:2
ysize:1
csize:0.05
dx:0.0238095
h:0.025
rho0:1000
mass:0.566894
g:1|0
c:13.4164
CFL:0.2

functions 1 8 string
time:T=(T+dt)
continuity:rho_dot=((-(rho*sph_D00(v,mass,rho,Wp52220)))+(((0.1*c)*h)*sph_L00(rho,mass,rho,Wp52220)))
irho:rho=(rho+int1((rho_dot,dt))
EOS:p=(((c^2)*(rho-rho0))+10000)
euler:a=if((gid,(0*v),(((-((1/rho)*sph_G11(p,mass,rho,Wp52220)))+(0.01*sph_L00(v,mass,rho,Wp52220)))+g))
vel:v=(v+int1((a,dt))
pos:r=(r+int1((v,dt))
new_dt:dt=(CFL*min((sqrt(((h/fmax(magnitude((a)))),(h/c)))

POINTS 2798 float
-0.5125 -0.4875 0 -0.5125 -0.4625 0 -0.5375 -0.4875 0 
-0.5375 -0.4625 0 -0.487805 -0.4875 0 -0.487805 -0.4625 0 
-0.463415 -0.4875 0 -0.463415 -0.4625 0 -0.414634 -0.4625 0 
-0.439024 -0.4875 0 -0.439024 -0.4625 0 -0.414634 -0.4875 0 
-0.390244 -0.4625 0 -0.365854 -0.4875 0 -0.365854 -0.4625 0 
-0.390244 -0.4875 0 -0.341463 -0.4625 0 -0.317073 -0.4625 0 
-0.341463 -0.4875 0 -0.317073 -0.4875 0 -0.268293 -0.4875 0 
-0.268293 -0.4625 0 -0.292683 -0.4875 0 -0.292683 -0.4625 0 
-0.243902 -0.4875 0 -0.219512 -0.4625 0 -0.243902 -0.4625 0 
-0.219512 -0.4875 0 -0.170732 -0.4875 0 -0.170732 -0.4625 0 
-0.195122 -0.4625 0 -0.195122 -0.4875 0 -0.121951 -0.4875 0 
-0.121951 -0.4625 0 -0.146341 -0.4875 0 -0.146341 -0.4625 0 
-0.0731707 -0.4875 0 -0.097561 -0.4875 0 -0.097561 -0.4625 0 
-0.0731707 -0.4625 0 -0.0243903 -0.4625 0 -1.86265e-08 -0.4625 0 
-1.86265e-08 -0.4875 0 -0.0487805 -0.4625 0 -0.0243903 -0.4875 0 
-0.0487805 -0.4875 0 0.0487805 -0.4625 0 0.0243902 -0.4875 0 
0.0243902 -0.4625 0 0.0487805 -0.4875 0 0.097561 -0.4625 0 
0.0731707 -0.4625 0 0.097561 -0.4875 0 0.0731707 -0.4875 0 
0.121951 -0.4625 0 0.146341 -0.4625 0 0.121951 -0.4875 0 
0.146341 -0.4875 0 0.170732 -0.4875 0 0.170732 -0.4625 0 
0.195122 -0.4875 0 0.195122 -0.4625 0 0.219512 -0.4625 0 
0.243902 -0.4875 0 0.243902 -0.4625 0 0.219512 -0.4875 0 
0.268293 -0.4625 0 0.292683 -0.4625 0 0.292683 -0.4875 0 
0.268293 -0.4875 0 0.317073 -0.4875 0 0.317073 -0.4625 0 
0.341463 -0.4875 0 0.341463 -0.4625 0 0.390244 -0.4625 0 
0.390244 -0.4875 0 0.365854 -0.4875 0 0.365854 -0.4625 0 
0.414634 -0.4875 0 0.414634 -0.4625 0 0.439024 -0.4875 0 
0.439024 -0.4625 0 0.463415 -0.4875 0 0.463415 -0.4625 0 
0.487805 -0.4875 0 0.487805 -0.4625 0 0.5375 -0.4625 0 
0.5125 -0.4875 0 0.5375 -0.4875 0 0.5125 -0.4625 0 
-0.5375 -0.4375 0 -0.5375 -0.4125 0 -0.5125 -0.4375 0 
-0.5125 -0.4125 0 -0.488147 -0.412577 0 -0.464203 -0.411534 0 
-0.463853 -0.43725 0 -0.488124 -0.437708 0 -0.416641 -0.437191 0 
-0.440873 -0.410763 0 -0.440201 -0.43699 0 -0.417598 -0.41129 0 
-0.369984 -0.412249 0 -0.368587 -0.437504 0 -0.392734 -0.437449 0 
-0.393943 -0.412004 0 -0.320164 -0.437461 0 -0.34434 -0.437562 0 
-0.34587 -0.41239 0 -0.321813 -0.412169 0 -0.273218 -0.412928 0 
-0.296017 -0.437515 0 -0.271619 -0.437683 0 -0.297694 -0.412383 0 
-0.248356 -0.413417 0 -0.246926 -0.437825 0 -0.22204 -0.437917 0 
-0.223248 -0.413652 0 -0.197266 -0.437711 0 -0.173107 -0.413571 0 
-0.198196 -0.41322 0 -0.172528 -0.437858 0 -0.147616 -0.437926 0 
-0.147811 -0.413793 0 -0.122618 -0.437992 0 -0.122437 -0.413913 0 
-0.0976642 -0.437911 0 -0.0971524 -0.413667 0 -0.0728301 -0.437885 0 
-0.0719784 -0.413611 0 -0.0479783 -0.437971 0 -0.0231563 -0.437877 0 
-0.0215846 -0.413527 0 -0.0467654 -0.413774 0 0.00157024 -0.437902 0 
0.0262998 -0.437893 0 0.00343644 -0.413521 0 0.028412 -0.4135 0 
0.0533535 -0.413442 0 0.0509942 -0.437876 0 0.0782277 -0.413398 0 
0.0756484 -0.437869 0 0.103031 -0.413368 0 0.149483 -0.437859 0 
0.100281 -0.437869 0 0.124894 -0.437866 0 0.127791 -0.413356 0 
0.177251 -0.413344 0 0.174064 -0.437877 0 0.19865 -0.437884 0 
0.152541 -0.413335 0 0.24772 -0.437835 0 0.223211 -0.437867 0 
0.201904 -0.413315 0 0.226467 -0.413218 0 0.299555 -0.412881 0 
0.296539 -0.437745 0 0.275267 -0.412961 0 0.272161 -0.437786 0 
0.250918 -0.413094 0 0.345243 -0.437675 0 0.323799 -0.412855 0 
0.347895 -0.412607 0 0.320908 -0.437744 0 0.395558 -0.412307 0 
0.393648 -0.437641 0 0.36946 -0.437593 0 0.37179 -0.412391 0 
0.440212 -0.43656 0 0.417374 -0.437042 0 0.418682 -0.410518 0 
0.441083 -0.409749 0 0.464195 -0.412576 0 0.488291 -0.413382 0 
0.488203 -0.438056 0 0.463705 -0.437698 0 0.5375 -0.4375 0 
0.5375 -0.4125 0 0.5125 -0.4375 0 0.5125 -0.4125 0 
-0.5375 -0.3875 0 -0.5375 -0.3625 0 -0.5125 -0.3625 0 
-0.5125 -0.3875 0 -0.464528 -0.35917 0 -0.488175 -0.361933 0 
-0.488197 -0.387282 0 -0.464431 -0.385488 0 -0.418414 -0.359154 0 
-0.418117 -0.385224 0 -0.441317 -0.384299 0 -0.441596 -0.357694 0 
-0.394551 -0.386364 0 -0.394868 -0.360625 0 -0.370699 -0.38686 0 
-0.371061 -0.361413 0 -0.34666 -0.387108 0 -0.32302 -0.361466 0 
-0.322653 -0.386814 0 -0.347036 -0.361779 0 -0.29846 -0.387332 0 
-0.273824 -0.388302 0 -0.29869 -0.36247 0 -0.273869 -0.363847 0 
-0.24873 -0.36506 0 -0.223346 -0.365649 0 -0.24881 -0.389169 0 
-0.223548 -0.389573 0 -0.172167 -0.366057 0 -0.172871 -0.389642 0 
-0.197864 -0.364989 0 -0.198273 -0.388985 0 -0.146148 -0.366542 0 
-0.147196 -0.390011 0 -0.120157 -0.366555 0 -0.121498 -0.390123 0 
-0.0687902 -0.365961 0 -0.0959653 -0.389664 0 -0.0944276 -0.365814 0 
-0.0705422 -0.389649 0 -0.0450065 -0.38991 0 -0.0429584 -0.366329 0 
-0.0171872 -0.365586 0 -0.0194972 -0.389458 0 0.00574522 -0.389338 0 
0.0082066 -0.365253 0 0.0334311 -0.36522 0 0.0308845 -0.389299 0 
0.0559981 -0.389184 0 0.0837792 -0.36489 0 0.081033 -0.389076 0 
0.0586442 -0.365036 0 0.108865 -0.364665 0 0.130823 -0.388951 0 
0.105974 -0.388967 0 0.133782 -0.364571 0 0.15564 -0.388903 0 
0.158558 -0.364441 0 0.183188 -0.364213 0 0.180371 -0.388831 0 
0.231955 -0.363522 0 0.204955 -0.388681 0 0.229395 -0.388451 0 
0.207644 -0.363889 0 0.25371 -0.388209 0 0.280304 -0.362906 0 
0.277935 -0.387993 0 0.256168 -0.36319 0 0.302097 -0.387873 0 
0.328176 -0.362249 0 0.349936 -0.387132 0 0.326152 -0.387707 0 
0.304353 -0.362691 0 0.37345 -0.386743 0 0.397825 -0.360013 0 
0.374825 -0.360726 0 0.396788 -0.386409 0 0.351602 -0.361248 0 
0.419515 -0.383436 0 0.442516 -0.355644 0 0.441803 -0.382763 0 
0.42031 -0.356171 0 0.464606 -0.386991 0 0.464879 -0.360838 0 
0.488369 -0.363278 0 0.48836 -0.388386 0 0.5375 -0.3625 0 
0.5375 -0.3875 0 0.5125 -0.3875 0 0.5125 -0.3625 0 
-0.5125 -0.3375 0 -0.5375 -0.3125 0 -0.5375 -0.3375 0 
-0.5125 -0.3125 0 -0.487977 -0.311448 0 -0.46453 -0.305511 0 
-0.488093 -0.336627 0 -0.464529 -0.332542 0 -0.418994 -0.307 0 
-0.441826 -0.330948 0 -0.418673 -0.3331 0 -0.44207 -0.304042 0 
-0.371741 -0.31057 0 -0.395168 -0.334804 0 -0.395545 -0.308884 0 
-0.371375 -0.335964 0 -0.347594 -0.311204 0 -0.347315 -0.33646 0 
-0.323449 -0.310917 0 -0.323256 -0.336172 0 -0.298941 -0.313239 0 
-0.298798 -0.337805 0 -0.274027 -0.315117 0 -0.273862 -0.33949 0 
-0.248863 -0.317046 0 -0.223239 -0.318247 0 -0.248676 -0.341039 0 
-0.22318 -0.341869 0 -0.171282 -0.319639 0 -0.171572 -0.342761 0 
-0.197381 -0.317577 0 -0.197518 -0.341193 0 -0.145279 -0.343361 0 
-0.119057 -0.343188 0 -0.118439 -0.319947 0 -0.144825 -0.320349 0 
-0.0924418 -0.318529 0 -0.0931856 -0.342098 0 -0.0673152 -0.342549 0 
-0.0663035 -0.319427 0 -0.0411996 -0.342996 0 -0.0152045 -0.341885 0 
-0.0398474 -0.319904 0 -0.0135556 -0.318344 0 0.0356133 -0.341243 0 
0.0374016 -0.317414 0 0.0103047 -0.341224 0 0.0120631 -0.317214 0 
0.060919 -0.340926 0 0.0860679 -0.340786 0 0.0880415 -0.316612 0 
0.0628921 -0.316884 0 0.113017 -0.316258 0 0.137955 -0.315775 0 
0.111206 -0.340468 0 0.136192 -0.340177 0 0.187177 -0.314581 0 
0.160909 -0.33985 0 0.185413 -0.33944 0 0.16268 -0.315183 0 
0.235862 -0.313507 0 0.209762 -0.338966 0 0.234022 -0.338512 0 
0.211547 -0.31401 0 0.258215 -0.3381 0 0.284099 -0.312415 0 
0.282307 -0.337723 0 0.260084 -0.313006 0 0.307802 -0.31166 0 
0.33105 -0.310188 0 0.30622 -0.337321 0 0.329768 -0.336402 0 
0.352866 -0.334979 0 0.35396 -0.308506 0 0.376943 -0.308352 0 
0.399629 -0.306047 0 0.398773 -0.333173 0 0.375939 -0.33457 0 
0.421718 -0.301404 0 0.443152 -0.328121 0 0.44382 -0.300543 0 
0.421082 -0.32888 0 0.46509 -0.334166 0 0.488342 -0.338146 0 
0.465512 -0.306949 0 0.488359 -0.31297 0 0.5125 -0.3125 0 
0.5125 -0.3375 0 0.5375 -0.3375 0 0.5375 -0.3125 0 
-0.5125 -0.2875 0 -0.5125 -0.2625 0 -0.5375 -0.2625 0 
-0.5375 -0.2875 0 -0.487801 -0.261495 0 -0.464777 -0.250206 0 
-0.487862 -0.286433 0 -0.46456 -0.278 0 -0.442301 -0.250132 0 
-0.419413 -0.254401 0 -0.419259 -0.280817 0 -0.442248 -0.277037 0 
-0.371931 -0.285287 0 -0.371955 -0.26022 0 -0.396082 -0.257108 0 
-0.395856 -0.282955 0 -0.347652 -0.286046 0 -0.347469 -0.261066 0 
-0.323003 -0.260628 0 -0.323392 -0.285746 0 -0.298855 -0.288682 0 
-0.274086 -0.290603 0 -0.298581 -0.264073 0 -0.273964 -0.265947 0 
-0.248871 -0.269334 0 -0.248972 -0.293141 0 -0.222851 -0.271753 0 
-0.223148 -0.294866 0 -0.196468 -0.270827 0 -0.169816 -0.250825 0 
-0.170822 -0.296649 0 -0.170151 -0.273714 0 -0.197003 -0.294084 0 
-0.117159 -0.27366 0 -0.144255 -0.297512 0 -0.116645 -0.250601 0 
-0.143584 -0.274663 0 -0.117817 -0.296798 0 -0.143235 -0.251911 0 
-0.0916927 -0.29509 0 -0.0908788 -0.271857 0 -0.063228 -0.251901 0 
-0.0653131 -0.296629 0 -0.0642019 -0.274132 0 -0.038446 -0.297151 0 
-0.0369926 -0.274756 0 -0.0117162 -0.295027 0 -0.009771 -0.272088 0 
-0.0357491 -0.252661 0 0.0411847 -0.269728 0 0.0163364 -0.268774 0 
0.0140777 -0.293093 0 0.039218 -0.293666 0 0.0647871 -0.292992 0 
0.0920407 -0.268066 0 0.0900664 -0.292314 0 0.0666208 -0.269224 0 
0.114897 -0.291851 0 0.141789 -0.266827 0 0.139657 -0.291309 0 
0.116966 -0.267317 0 0.189073 -0.289801 0 0.191662 -0.265242 0 
0.166719 -0.266044 0 0.164421 -0.29055 0 0.240785 -0.263478 0 
0.216391 -0.264431 0 0.238072 -0.288553 0 0.213645 -0.289165 0 
0.286023 -0.286852 0 0.262228 -0.287787 0 0.264696 -0.262269 0 
0.288202 -0.260943 0 0.309462 -0.285686 0 0.332471 -0.283638 0 
[...]
POINT_DATA 2798
SCALARS id float
LOOKUP_TABLE default
2620 2621 2600 2601 2640 2641 2642 2643 2647 
2644 2645 2646 2649 2650 2651 2648 2653 2655 
2652 2654 2658 2659 2656 2657 2660 2663 2661 
2662 2666 2667 2665 2664 2670 2671 2668 2669 
2674 2672 2673 2675 2679 2681 2680 2677 2678 
2676 2685 2682 2683 2684 2689 2687 2688 2686 
2691 2693 2690 2692 2694 2695 2696 2697 2699 
2700 2701 2698 2703 2705 2704 2702 2706 2707 
2708 2709 2713 2712 2710 2711 2714 2715 2716 
2717 2718 2719 2720 2721 2743 2722 2742 2723 
2602 2603 2622 2623 1661 1679 1678 1660 1714 
1697 1696 1715 1751 1750 1732 1733 1786 1768 
1769 1787 1823 1804 1822 1805 1841 1840 1858 
1859 1876 1895 1877 1894 1912 1913 1930 1931 
1948 1949 1966 1967 1984 2002 2003 1985 2020 
2038 2021 2039 2057 2056 2075 2074 2093 2128 
2092 2110 2111 2147 2146 2164 2129 2200 2182 
2165 2183 2237 2236 2219 2218 2201 2272 2255 
2273 2254 2309 2308 2290 2291 2344 2326 2327 
2345 2363 2381 2380 2362 2744 2745 2724 2725 
2604 2605 2625 2624 1681 1663 1662 1680 1717 
1716 1698 1699 1734 1735 1752 1753 1770 1789 
1788 1771 1806 1824 1807 1825 1843 1861 1842 
1860 1897 1896 1879 1878 1915 1914 1933 1932 
1969 1950 1951 1968 1986 1987 2005 2004 2022 
2023 2041 2040 2058 2077 2076 2059 2095 2112 
2094 2113 2130 2131 2149 2148 2185 2166 2184 
2167 2202 2221 2220 2203 2238 2257 2274 2256 
2239 2292 2311 2293 2310 2275 2328 2347 2346 
2329 2364 2365 2383 2382 2747 2746 2726 2727 
2626 2607 2606 2627 1665 1683 1664 1682 1719 
1700 1718 1701 1755 1736 1737 1754 1773 1772 
1791 1790 1809 1808 1827 1826 1845 1863 1844 
1862 1899 1898 1881 1880 1916 1934 1935 1917 
1953 1952 1970 1971 1988 2006 1989 2007 2042 
2043 2024 2025 2060 2078 2079 2061 2097 2115 
2096 2114 2151 2132 2150 2133 2187 2168 2186 
2169 2204 2223 2222 2205 2241 2259 2240 2258 
2276 2277 2295 2313 2312 2294 2331 2348 2349 
2330 2366 2384 2367 2385 2729 2728 2748 2749 
2628 2629 2609 2608 1667 1685 1666 1684 1703 
1721 1720 1702 1756 1757 1739 1738 1774 1775 
1793 1792 1810 1828 1811 1829 1847 1846 1865 
1864 1883 1902 1900 1901 1882 1937 1918 1938 
1919 1936 1920 1954 1955 1974 1972 1973 1990 
1991 2008 2009 1992 2045 2027 2026 2044 2062 
2081 2080 2063 2098 2117 2116 2099 2152 2153 
2135 2134 2189 2171 2188 2170 2224 2206 2207 
2225 2242 2260 2243 2261 2296 2297 2279 2278 
2314 2332 2350 2315 2369 2387 2368 2386 2730 
2750 2751 2731 2630 2631 2611 2610 1686 1669 
1668 1722 1704 1723 1758 1741 1740 1759 1795 
1776 1794 1777 1812 1813 1831 1830 1848 1849 
1868 1867 1866 1903 1885 1886 1884 1904 1939 
1940 1922 1921 1976 1957 1975 1956 1958 2010 
2012 1994 1993 2011 2029 2047 2028 2046 2083 
2065 2082 2064 2118 2119 2101 2100 2136 2137 
2155 2154 2172 2190 2191 2173 2227 2209 2208 
2226 2245 2263 2262 2244 2281 2280 2298 2316 
2333 2352 2334 2351 2389 2388 2370 2733 2732 
2752 2753 2633 2632 2612 2613 1671 1688 1670 
1687 1705 1706 1725 1724 1742 1761 1743 1760 
1797 1778 1796 1779 1832 1833 1814 1815 1870 
1852 1869 1851 1850 1905 1888 1887 1906 1924 
1923 1942 1941 1960 1977 1978 1959 2013 2014 
1997 1995 1996 2049 2030 2048 2032 2031 2050 
2067 2066 2084 2068 2085 2102 2103 2086 2138 
2120 2139 2121 2157 2156 2175 2174 2192 2228 
2211 2193 2210 2264 2246 2229 2247 2299 2282 
2300 2317 2335 2336 2318 2372 2390 2371 2354 
2353 2735 2734 2755 2754 2634 2635 2614 2615 
1689 1673 1672 1690 1726 1727 1708 1707 1744 
1762 1763 1745 1798 1817 1799 1781 1780 1854 
1816 1834 1835 1871 1872 1853 1908 1907 1889 
1890 1927 1925 1926 1943 1979 1944 1961 1962 
1999 1998 1980 2034 2016 2033 2017 2015 2070 
2051 2052 2069 2104 2105 2088 2087 2123 2122 
2141 2140 2177 2176 2159 2158 2195 2213 2212 
2194 2248 2231 2230 2265 2284 2302 2301 2266 
2283 2320 2319 2338 2337 2355 2392 2391 2356 
2373 2756 2736 2757 2737 2617 2616 2637 2636 
1675 1692 1691 1674 1728 1710 1709 1729 1765 
1747 1764 1746 1782 1766 1800 1783 1784 1801 
1767 1818 1836 1819 1837 1855 1873 1874 1856 
1891 1909 1892 1803 1857 1945 1910 1928 1839 
1963 1946 1981 1964 1893 1982 2000 1911 1929 
2035 2036 2071 2053 2106 2072 2107 2089 2054 
2142 2125 2143 2124 2178 2161 2160 2179 2214 
2197 2215 2196 2232 2233 2249 2267 2250 2286 
2285 2268 2303 2322 2321 2339 2304 2375 2374 
2393 2357 2759 2739 2738 2758 2564 2566 2567 
2565 2571 2570 2569 2568 2573 2572 2575 2574 
2578 2576 2579 2577 2580 2582 2581 2583 2587 
2585 2586 2584 2588 2590 2589 2591 2595 2592 
2593 2594 2599 2598 2597 2596 2618 2619 2638 
2639 1693 1676 1677 1695 1711 1694 1730 1748 
1600 1712 1580 20 1731 1713 1521 60 40 
1749 1561 100 1541 80 1785 1802 1820 120 
160 140 1 180 1838 220 1821 200 21 
260 81 240 1875 320 300 280 2018 162 
340 161 181 1965 201 1947 2108 2090 2126 
1983 2001 2037 2019 2144 2162 2198 2055 2180 
2234 2251 2216 2073 2287 2270 2252 2269 2305 
2288 2323 2394 2358 2340 2760 2740 2761 2741 
2764 2763 2762 2765 2768 2766 2769 2767 2773 
2770 2772 2771 2777 2775 2776 2774 2780 2779 
2778 2781 2782 2785 2784 2783 2786 2789 2787 
2788 2790 2793 2791 2792 2795 2796 2794 2797 
901 1000 1140 1120 980 1160 1001 1040 1180 
1041 1200 1061 1081 1240 1220 1002 1280 1260 
1101 1062 1141 1300 1320 1121 1340 1181 1360 
1161 1380 1201 1400 1241 1420 1221 1440 1261 
1281 1460 1500 1301 1520 1480 1321 1560 1361 
1540 1341 1381 1401 1421 1620 1441 1640 1382 
0 1461 1442 1481 1482 1502 1501 1522 1542 
1543 1581 1562 1601 1582 1621 1641 1602 1622 
2 41 1642 22 61 42 82 121 102 
101 62 122 83 141 142 163 360 143 
182 221 380 222 400 241 202 261 420 
281 440 301 460 321 480 2091 341 500 
520 2109 2127 361 540 2145 2163 560 2306 
580 2324 2181 2341 600 620 2359 2342 2217 
2376 2199 2235 2395 2360 2377 2253 700 680 
2271 2396 740 840 2378 800 2325 2307 2289 
2361 2343 701 761 860 2379 820 721 880 
801 900 2397 1020 1060 1080 920 940 960 
1100 882 863 881 862 843 922 921 902 
883 941 961 981 942 962 983 1021 982 
1082 1042 1043 1003 1022 1083 1064 1063 1102 
1142 1103 1124 1104 1122 1123 1163 1182 1162 
1164 1144 1143 1202 1203 1183 1222 1242 1223 
1243 1263 1282 1262 1283 1323 1322 1303 1302 
1362 1363 1343 1342 1402 1383 1422 1403 1443 
1423 1463 1462 1483 1484 1503 1563 1524 1544 
1523 1545 1603 1583 1584 1564 1604 1623 1624 
1644 1643 23 4 24 3 43 64 44 
63 103 104 123 84 124 144 164 183 
203 184 204 224 223 242 243 262 283 
263 282 323 303 302 322 342 343 362 
381 363 401 421 402 382 422 442 461 
441 462 640 482 481 501 660 521 522 
561 562 542 581 541 601 720 621 582 
602 622 642 641 760 661 780 662 681 
682 722 702 703 762 741 742 781 783 
821 802 782 803 842 841 822 823 861 
844 845 865 864 884 885 904 903 923 
943 944 924 963 965 984 964 985 1025 
1004 1005 1023 1024 1065 1045 1044 1084 1105 
1085 1145 1126 1165 1146 1125 1204 1205 1184 
1185 1244 1225 1245 1224 1285 1284 1264 1265 
1305 1325 1324 1304 1365 1344 1345 1364 1384 
1404 1405 1385 1444 1445 1424 1425 1464 1504 
1465 1485 1505 1506 1525 1546 1526 1566 1586 
1585 1565 1605 1606 1625 1626 1645 1646 25 
26 5 6 65 46 45 66 85 86 
106 105 125 145 126 165 146 166 186 
185 205 206 244 226 225 245 285 284 
264 265 325 305 324 304 364 365 345 
344 384 403 383 404 443 424 423 444 
484 464 463 483 503 524 504 502 523 
563 543 544 564 584 583 624 623 603 
604 664 663 644 643 684 704 683 744 
724 743 723 764 785 784 763 804 825 
805 824 866 846 847 867 905 886 906 
887 907 926 946 947 927 925 945 987 
986 966 967 1006 1007 1027 1026 1067 1046 
1066 1047 1106 1107 1086 1087 1147 1127 1206 
1207 1186 1187 1167 1166 1247 1227 1246 1226 
1266 1287 1267 1286 1306 1307 1327 1326 1366 
1367 1346 1347 1386 1387 1406 1407 1446 1426 
1447 1427 1466 1487 1486 1467 1507 1547 1527 
1567 1548 1587 1568 1588 1608 1628 1607 1627 
8 7 1648 1647 28 48 47 27 67 
88 68 107 87 108 127 147 128 148 
188 187 168 167 207 228 208 227 246 
286 267 266 247 306 327 287 307 326 
367 346 347 366 406 385 405 386 446 
445 426 425 485 465 466 486 505 506 
545 525 526 546 565 566 586 585 606 
625 626 605 666 645 665 646 705 686 
685 706 745 747 725 726 746 787 786 
765 767 766 826 807 827 806 848 868 
869 849 909 888 908 889 929 928 948 
949 969 989 988 968 1029 1028 1009 1008 
1068 1069 1048 1049 1109 1108 1088 1089 1128 
1148 1149 1129 1168 1169 1188 1189 1209 1228 
1248 1249 1208 1229 1289 1288 1268 1269 1309 
1308 1329 1328 1349 1369 1348 1368 1408 1388 
1389 1409 1448 1428 1429 1449 1488 1489 1468 
1469 1508 1529 1528 1509 1590 1569 1549 1570 
1589 1629 1609 1649 9 49 29 70 110 
90 89 109 69 129 150 149 189 170 
169 190 210 209 229 230 248 268 269 
249 288 289 309 308 328 348 349 329 
387 389 407 369 368 388 408 409 427 
428 468 467 448 447 487 508 507 488 
527 528 548 547 568 567 587 588 607 
628 627 608 647 667 668 648 709 708 
707 687 688 748 749 728 727 729 788 
769 789 768 808 809 829 828 871 850 
870 851 910 890 911 891 950 930 951 
931 990 971 991 970 1010 1030 1011 1031 
1050 1070 1051 1071 1091 1111 1110 1090 1150 
1131 1130 1151 1170 1191 1190 1171 1250 1211 
1210 1230 1231 1251 1271 1290 1270 1291 1310 
1331 1311 1330 1351 1371 1370 1350 1391 1410 
1390 1411 1430 1431 1450 1451 1470 1491 1490 
1471 1510 1531 1511 1530 1591 1571 1550 1551 
1610 1630 1631 1611 10 1651 11 1650 50 
31 30 51 111 71 91 152 131 151 
130 191 172 171 192 231 232 211 212 
251 270 250 271 291 311 310 290 350 
351 330 331 370 371 391 390 429 430 
431 411 410 451 469 449 470 450 471 
491 510 509 490 489 511 531 550 529 
549 530 551 569 590 589 570 611 609 
629 631 610 630 649 670 669 651 650 
711 689 690 691 710 731 751 730 750 
771 770 790 791 831 810 811 830 873 
852 872 853 912 892 893 913 933 953 
952 932 973 992 993 972 1013 1033 1012 
1032 1052 1072 1053 1073 1093 1092 1112 1113 
1173 1152 1153 1132 1133 1172 1212 1213 1192 
1193 1232 1252 1233 1253 1292 1273 1293 1272 
1312 1332 1333 1313 1373 1372 1352 1353 1393 
1392 1412 1413 1452 1453 1432 1433 1492 1472 
1493 1473 1513 1512 1533 1553 1552 1532 1592 
1593 1573 1572 1632 1612 1613 1633 13 1653 
12 1652 32 52 33 53 73 72 93 
92 112 113 133 132 153 193 173 214 
234 233 213 253 252 273 272 313 333 
312 292 293 332 373 353 352 413 392 
393 372 412 453 432 433 452 473 472 
513 512 493 492 552 553 532 533 573 
592 591 593 571 572 613 632 612 633 
653 671 672 673 652 712 693 692 713 
752 753 732 733 792 773 772 793 832 
813 833 812 855 854 874 875 895 894 
914 915 935 955 934 954 975 995 994 
974 1015 1014 1035 1034 1075 1055 1074 1054 
1095 1094 1115 1114 1135 1155 1174 1175 1134 
1154 1195 1194 1215 1214 1255 1234 1235 1254 
1275 1274 1295 1294 1315 1314 1335 1334 1355 
1375 1374 1354 1414 1415 1395 1394 1435 1434 
1475 1455 1454 1474 1515 1494 1514 1495 1555 
1534 1554 1535 1595 1575 1574 1594 1634 1615 
1614 1635 1655 1654 15 14 75 35 54 
34 55 74 114 94 115 95 135 154 
134 155 175 195 174 194 215 235 255 
275 274 295 254 294 335 315 334 314 
375 374 354 355 414 395 415 394 435 
434 454 455 475 495 494 474 515 514 
534 535 555 574 575 554 615 594 595 
634 635 655 614 654 674 675 694 714 
715 695 735 754 755 734 775 774 795 
794 835 834 814 815 876 897 877 896 
917 916 937 936 976 957 977 956 997 
996 1017 1016 1036 1056 1037 1057 1077 1096 
1076 1097 1117 1116 1136 1137 1157 1176 1156 
1177 1216 1217 1196 1197 1236 1256 1257 1237 
1276 1277 1296 1297 1317 1337 1357 1316 1336 
1397 1377 1376 1396 1356 1437 1416 1436 1417 
1457 1456 1476 1477 1497 1496 1516 1517 1537 
1557 1556 1536 1576 1597 1596 1577 1617 1616 
1637 1636 1657 1656 16 37 36 17 76 
57 56 77 96 117 116 97 156 137 
157 136 177 176 196 197 217 257 237 
236 216 256 276 296 277 297 317 337 
336 316 356 377 357 376 397 396 416 
417 457 436 437 456 496 497 476 477 
517 516 537 536 557 576 577 556 597 
596 616 617 637 636 657 656 676 677 
696 697 716 736 737 717 757 756 776 
777 817 796 816 797 837 857 856 836 
1099 898 1079 878 1119 938 918 1139 1179 
978 958 1159 1199 998 1219 1018 1038 1058 
1279 1259 1239 1078 1098 1319 1299 1138 1118 
1158 1359 1339 1178 1198 1379 1399 1439 1218 
1238 1419 1278 1258 1479 1459 1318 1519 1298 
1499 1559 1338 1539 1358 1579 1378 1599 1398 
1619 1438 1418 1458 1639 1659 1498 19 39 
1478 79 1518 1538 59 119 1578 99 1558 
159 1598 1618 139 179 1658 199 1638 219 
18 58 38 239 259 299 98 78 279 
118 319 138 339 359 178 158 379 198 
218 399 419 439 459 258 238 278 479 
499 318 298 338 519 539 358 579 398 
559 378 599 438 418 619 458 639 659 
478 498 518 679 699 719 538 739 558 
759 578 779 598 799 819 618 839 638 
859 658 678 698 879 899 718 738 939 
919 758 778 979 959 798 999 818 1019 
838 1039 1059 858 2399 2401 2398 2400 2402 
2405 2403 2404 2406 2409 2407 2408 2412 2410 
2413 2411 2414 2415 2416 2417 2418 2419 2421 
2420 2427 2425 2422 2426 2423 2424 2429 2430 
2431 2428 2432 2433 2434 2435 2439 2438 2437 
2436 2442 2443 2441 2440 2445 2444 2447 2446 
2449 2448 2450 2451 2452 2455 2453 2454 2456 
2459 2457 2458 2463 2461 2460 2462 2464 2465 
2466 2467 2468 2469 2470 2471 2475 2474 2473 
2472 2477 2478 2481 2476 2480 2479 2482 2483 
2484 2485 2486 2489 2488 2487 2490 2491 2492 
2493 2497 2496 2495 2494 2500 2498 2499 2501 
2502 2503 2504 2505 2509 2508 2507 2506 2511 
2512 2513 2510 2514 2515 2516 2517 2520 2518 
2521 2519 2522 2523 2524 2525 2526 2529 2528 
2527 2533 2532 2530 2531 2534 2535 2536 2537 
2538 2539 2543 2540 2541 2542 2544 2545 2546 
2547 2548 2549 2550 2551 2555 2552 2553 2554 
2558 2556 2557 2559 2560 2561 2562 2563 
FIELD FieldData 7
r 3 2798 float
-0.5125 -0.4875 0 -0.5125 -0.4625 0 -0.5375 -0.4875 0 
-0.5375 -0.4625 0 -0.487805 -0.4875 0 -0.487805 -0.4625 0 
-0.463415 -0.4875 0 -0.463415 -0.4625 0 -0.414634 -0.4625 0 
-0.439024 -0.4875 0 -0.439024 -0.4625 0 -0.414634 -0.4875 0 
-0.390244 -0.4625 0 -0.365854 -0.4875 0 -0.365854 -0.4625 0 
-0.390244 -0.4875 0 -0.341463 -0.4625 0 -0.317073 -0.4625 0 
-0.341463 -0.4875 0 -0.317073 -0.4875 0 -0.268293 -0.4875 0 
-0.268293 -0.4625 0 -0.292683 -0.4875 0 -0.292683 -0.4625 0 
-0.243902 -0.4875 0 -0.219512 -0.4625 0 -0.243902 -0.4625 0 
-0.219512 -0.4875 0 -0.170732 -0.4875 0 -0.170732 -0.4625 0 
-0.195122 -0.4625 0 -0.195122 -0.4875 0 -0.121951 -0.4875 0 
-0.121951 -0.4625 0 -0.146341 -0.4875 0 -0.146341 -0.4625 0 
-0.0731707 -0.4875 0 -0.097561 -0.4875 0 -0.097561 -0.4625 0 
-0.0731707 -0.4625 0 -0.0243903 -0.4625 0 -1.86265e-08 -0.4625 0 
-1.86265e-08 -0.4875 0 -0.0487805 -0.4625 0 -0.0243903 -0.4875 0 
-0.0487805 -0.4875 0 0.0487805 -0.4625 0 0.0243902 -0.4875 0 
0.0243902 -0.4625 0 0.0487805 -0.4875 0 0.097561 -0.4625 0 
0.0731707 -0.4625 0 0.097561 -0.4875 0 0.0731707 -0.4875 0 
0.121951 -0.4625 0 0.146341 -0.4625 0 0.121951 -0.4875 0 
0.146341 -0.4875 0 0.170732 -0.4875 0 0.170732 -0.4625 0 
0.195122 -0.4875 0 0.195122 -0.4625 0 0.219512 -0.4625 0 
0.243902 -0.4875 0 0.243902 -0.4625 0 0.219512 -0.4875 0 
0.268293 -0.4625 0 0.292683 -0.4625 0 0.292683 -0.4875 0 
0.268293 -0.4875 0 0.317073 -0.4875 0 0.317073 -0.4625 0 
0.341463 -0.4875 0 0.341463 -0.4625 0 0.390244 -0.4625 0 
0.390244 -0.4875 0 0.365854 -0.4875 0 0.365854 -0.4625 0 
0.414634 -0.4875 0 0.414634 -0.4625 0 0.439024 -0.4875 0 
0.439024 -0.4625 0 0.463415 -0.4875 0 0.463415 -0.4625 0 
0.487805 -0.4875 0 0.487805 -0.4625 0 0.5375 -0.4625 0 
0.5125 -0.4875 0 0.5375 -0.4875 0 0.5125 -0.4625 0 
-0.5375 -0.4375 0 -0.5375 -0.4125 0 -0.5125 -0.4375 0 
-0.5125 -0.4125 0 -0.488147 -0.412577 0 -0.464203 -0.411534 0 
-0.463853 -0.43725 0 -0.488124 -0.437708 0 -0.416641 -0.437191 0 
-0.440873 -0.410763 0 -0.440201 -0.43699 0 -0.417598 -0.41129 0 
-0.369984 -0.412249 0 -0.368587 -0.437504 0 -0.392734 -0.437449 0 
-0.393943 -0.412004 0 -0.320164 -0.437461 0 -0.34434 -0.437562 0 
-0.34587 -0.41239 0 -0.321813 -0.412169 0 -0.273218 -0.412928 0 
-0.296017 -0.437515 0 -0.271619 -0.437683 0 -0.297694 -0.412383 0 
-0.248356 -0.413417 0 -0.246926 -0.437825 0 -0.22204 -0.437917 0 
-0.223248 -0.413652 0 -0.197266 -0.437711 0 -0.173107 -0.413571 0 
-0.198196 -0.41322 0 -0.172528 -0.437858 0 -0.147616 -0.437926 0 
-0.147811 -0.413793 0 -0.122618 -0.437992 0 -0.122437 -0.413913 0 
-0.0976642 -0.437911 0 -0.0971524 -0.413667 0 -0.0728301 -0.437885 0 
-0.0719784 -0.413611 0 -0.0479783 -0.437971 0 -0.0231563 -0.437877 0 
-0.0215846 -0.413527 0 -0.0467654 -0.413774 0 0.00157024 -0.437902 0 
0.0262998 -0.437893 0 0.00343644 -0.413521 0 0.028412 -0.4135 0 
0.0533535 -0.413442 0 0.0509942 -0.437876 0 0.0782277 -0.413398 0 
0.0756484 -0.437869 0 0.103031 -0.413368 0 0.149483 -0.437859 0 
0.100281 -0.437869 0 0.124894 -0.437866 0 0.127791 -0.413356 0 
0.177251 -0.413344 0 0.174064 -0.437877 0 0.19865 -0.437884 0 
0.152541 -0.413335 0 0.24772 -0.437835 0 0.223211 -0.437867 0 
0.201904 -0.413315 0 0.226467 -0.413218 0 0.299555 -0.412881 0 
0.296539 -0.437745 0 0.275267 -0.412961 0 0.272161 -0.437786 0 
0.250918 -0.413094 0 0.345243 -0.437675 0 0.323799 -0.412855 0 
0.347895 -0.412607 0 0.320908 -0.437744 0 0.395558 -0.412307 0 
0.393648 -0.437641 0 0.36946 -0.437593 0 0.37179 -0.412391 0 
0.440212 -0.43656 0 0.417374 -0.437042 0 0.418682 -0.410518 0 
0.441083 -0.409749 0 0.464195 -0.412576 0 0.488291 -0.413382 0 
0.488203 -0.438056 0 0.463705 -0.437698 0 0.5375 -0.4375 0 
0.5375 -0.4125 0 0.5125 -0.4375 0 0.5125 -0.4125 0 
-0.5375 -0.3875 0 -0.5375 -0.3625 0 -0.5125 -0.3625 0 
-0.5125 -0.3875 0 -0.464528 -0.35917 0 -0.488175 -0.361933 0 
-0.488197 -0.387282 0 -0.464431 -0.385488 0 -0.418414 -0.359154 0 
-0.418117 -0.385224 0 -0.441317 -0.384299 0 -0.441596 -0.357694 0 
-0.394551 -0.386364 0 -0.394868 -0.360625 0 -0.370699 -0.38686 0 
-0.371061 -0.361413 0 -0.34666 -0.387108 0 -0.32302 -0.361466 0 
-0.322653 -0.386814 0 -0.347036 -0.361779 0 -0.29846 -0.387332 0 
-0.273824 -0.388302 0 -0.29869 -0.36247 0 -0.273869 -0.363847 0 
-0.24873 -0.36506 0 -0.223346 -0.365649 0 -0.24881 -0.389169 0 
-0.223548 -0.389573 0 -0.172167 -0.366057 0 -0.172871 -0.389642 0 
-0.197864 -0.364989 0 -0.198273 -0.388985 0 -0.146148 -0.366542 0 
-0.147196 -0.390011 0 -0.120157 -0.366555 0 -0.121498 -0.390123 0 
-0.0687902 -0.365961 0 -0.0959653 -0.389664 0 -0.0944276 -0.365814 0 
-0.0705422 -0.389649 0 -0.0450065 -0.38991 0 -0.0429584 -0.366329 0 
-0.0171872 -0.365586 0 -0.0194972 -0.389458 0 0.00574522 -0.389338 0 
0.0082066 -0.365253 0 0.0334311 -0.36522 0 0.0308845 -0.389299 0 
0.0559981 -0.389184 0 0.0837792 -0.36489 0 0.081033 -0.389076 0 
0.0586442 -0.365036 0 0.108865 -0.364665 0 0.130823 -0.388951 0 
0.105974 -0.388967 0 0.133782 -0.364571 0 0.15564 -0.388903 0 
0.158558 -0.364441 0 0.183188 -0.364213 0 0.180371 -0.388831 0 
0.231955 -0.363522 0 0.204955 -0.388681 0 0.229395 -0.388451 0 
0.207644 -0.363889 0 0.25371 -0.388209 0 0.280304 -0.362906 0 
0.277935 -0.387993 0 0.256168 -0.36319 0 0.302097 -0.387873 0 
0.328176 -0.362249 0 0.349936 -0.387132 0 0.326152 -0.387707 0 
0.304353 -0.362691 0 0.37345 -0.386743 0 0.397825 -0.360013 0 
0.374825 -0.360726 0 0.396788 -0.386409 0 0.351602 -0.361248 0 
0.419515 -0.383436 0 0.442516 -0.355644 0 0.441803 -0.382763 0 
0.42031 -0.356171 0 0.464606 -0.386991 0 0.464879 -0.360838 0 
0.488369 -0.363278 0 0.48836 -0.388386 0 0.5375 -0.3625 0 
0.5375 -0.3875 0 0.5125 -0.3875 0 0.5125 -0.3625 0 
-0.5125 -0.3375 0 -0.5375 -0.3125 0 -0.5375 -0.3375 0 
-0.5125 -0.3125 0 -0.487977 -0.311448 0 -0.46453 -0.305511 0 
-0.488093 -0.336627 0 -0.464529 -0.332542 0 -0.418994 -0.307 0 
-0.441826 -0.330948 0 -0.418673 -0.3331 0 -0.44207 -0.304042 0 
-0.371741 -0.31057 0 -0.395168 -0.334804 0 -0.395545 -0.308884 0 
-0.371375 -0.335964 0 -0.347594 -0.311204 0 -0.347315 -0.33646 0 
-0.323449 -0.310917 0 -0.323256 -0.336172 0 -0.298941 -0.313239 0 
-0.298798 -0.337805 0 -0.274027 -0.315117 0 -0.273862 -0.33949 0 
-0.248863 -0.317046 0 -0.223239 -0.318247 0 -0.248676 -0.341039 0 
-0.22318 -0.341869 0 -0.171282 -0.319639 0 -0.171572 -0.342761 0 
-0.197381 -0.317577 0 -0.197518 -0.341193 0 -0.145279 -0.343361 0 
-0.119057 -0.343188 0 -0.118439 -0.319947 0 -0.144825 -0.320349 0 
-0.0924418 -0.318529 0 -0.0931856 -0.342098 0 -0.0673152 -0.342549 0 
-0.0663035 -0.319427 0 -0.0411996 -0.342996 0 -0.0152045 -0.341885 0 
-0.0398474 -0.319904 0 -0.0135556 -0.318344 0 0.0356133 -0.341243 0 
0.0374016 -0.317414 0 0.0103047 -0.341224 0 0.0120631 -0.317214 0 