# vtk DataFile Version 4.0
vtk output
ASCII
DATASET POLYDATA
FIELD FieldData 4
domain 1 3 string
domain_min:-20|-15
domain_max:20|15
cell_size:0.05

variables 1 2 string
dt:0.000372678
T:1.99223

constants 1 10 string
xsize:2
ysize:1
csize:0.05
dx:0.0238095
h:0.025
rho0:1000
mass:0.566894
g:1|0
c:13.4164
CFL:0.2

functions 1 8 string
time:T=(T+dt)
continuity:rho_dot=((-(rho*sph_D00(v,mass,rho,Wp52220)))+(((0.1*c)*h)*sph_L00(rho,mass,rho,Wp52220)))
irho:rho=(rho+int1((rho_dot,dt))
EOS:p=(((c^2)*(rho-rho0))+10000)
euler:a=if((gid,(0*v),(((-((1/rho)*sph_G11(p,mass,rho,Wp52220)))+(0.01*sph_L00(v,mass,rho,Wp52220)))+g))
vel:v=(v+int1((a,dt))
pos:r=(r+int1((v,dt))
new_dt:dt=(CFL*min((sqrt(((h/fmax(magnitude((a)))),(h/c)))

POINTS 2798 float
-0.5375 -0.4875 0 -0.5375 -0.4625 0 -0.5125 -0.4875 0 
-0.5125 -0.4625 0 -0.487805 -0.4875 0 -0.463415 -0.4875 0 
-0.463415 -0.4625 0 -0.487805 -0.4625 0 -0.439024 -0.4625 0 
-0.439024 -0.4875 0 -0.414634 -0.4875 0 -0.414634 -0.4625 0 
-0.365854 -0.4875 0 -0.365854 -0.4625 0 -0.390244 -0.4625 0 
-0.390244 -0.4875 0 -0.317073 -0.4625 0 -0.341463 -0.4625 0 
-0.317073 -0.4875 0 -0.341463 -0.4875 0 -0.292683 -0.4875 0 
-0.268293 -0.4625 0 -0.292683 -0.4625 0 -0.268293 -0.4875 0 
-0.219512 -0.4625 0 -0.243902 -0.4875 0 -0.243902 -0.4625 0 
-0.219512 -0.4875 0 -0.195122 -0.4875 0 -0.170732 -0.4875 0 
-0.170732 -0.4625 0 -0.195122 -0.4625 0 -0.146341 -0.4875 0 
-0.121951 -0.4625 0 -0.121951 -0.4875 0 -0.146341 -0.4625 0 
-0.097561 -0.4875 0 -0.0731707 -0.4875 0 -0.0731707 -0.4625 0 
-0.097561 -0.4625 0 -0.0487805 -0.4875 0 -0.0487805 -0.4625 0 
-1.86265e-08 -0.4625 0 -0.0243903 -0.4625 0 -0.0243903 -0.4875 0 
-1.86265e-08 -0.4875 0 0.0487805 -0.4625 0 0.0487805 -0.4875 0 
0.0243902 -0.4875 0 0.0243902 -0.4625 0 0.097561 -0.4625 0 
0.0731707 -0.4875 0 0.0731707 -0.4625 0 0.097561 -0.4875 0 
0.121951 -0.4875 0 0.146341 -0.4875 0 0.121951 -0.4625 0 
0.146341 -0.4625 0 0.170732 -0.4625 0 0.195122 -0.4625 0 
0.170732 -0.4875 0 0.195122 -0.4875 0 0.219512 -0.4625 0 
0.243902 -0.4875 0 0.243902 -0.4625 0 0.219512 -0.4875 0 
0.268293 -0.4625 0 0.292683 -0.4875 0 0.268293 -0.4875 0 
0.292683 -0.4625 0 0.317073 -0.4875 0 0.341463 -0.4875 0 
0.317073 -0.4625 0 0.341463 -0.4625 0 0.365854 -0.4625 0 
0.390244 -0.4625 0 0.365854 -0.4875 0 0.390244 -0.4875 0 
0.414634 -0.4875 0 0.439024 -0.4875 0 0.414634 -0.4625 0 
0.439024 -0.4625 0 0.487805 -0.4625 0 0.463415 -0.4625 0 
0.463415 -0.4875 0 0.487805 -0.4875 0 0.5125 -0.4875 0 
0.5375 -0.4875 0 0.5125 -0.4625 0 0.5375 -0.4625 0 
-0.5125 -0.4125 0 -0.5125 -0.4375 0 -0.5375 -0.4125 0 
-0.5375 -0.4375 0 -0.488527 -0.410885 0 -0.464155 -0.43795 0 
-0.465192 -0.412845 0 -0.488512 -0.436953 0 -0.417429 -0.438157 0 
-0.442446 -0.408515 0 -0.440834 -0.436054 0 -0.419143 -0.412722 0 
-0.39335 -0.43669 0 -0.370364 -0.437344 0 -0.395601 -0.411761 0 
-0.368165 -0.413016 0 -0.301456 -0.438044 0 -0.320145 -0.410219 0 
-0.324426 -0.436217 0 -0.346961 -0.43706 0 -0.343478 -0.410354 0 
-0.253531 -0.414099 0 -0.296168 -0.412381 0 -0.274475 -0.40564 0 
-0.278535 -0.435167 0 -0.255821 -0.438653 0 -0.207693 -0.43677 0 
-0.207459 -0.410333 0 -0.230298 -0.411498 0 -0.230952 -0.437564 0 
-0.184157 -0.411554 0 -0.184462 -0.437336 0 -0.161031 -0.43683 0 
-0.160285 -0.411395 0 -0.115953 -0.403452 0 -0.116864 -0.433219 0 
-0.136992 -0.410014 0 -0.137928 -0.437462 0 -0.0720869 -0.409104 0 
-0.0721715 -0.436002 0 -0.0946435 -0.411617 0 -0.0953337 -0.437967 0 
-0.0494856 -0.409131 0 -0.0500508 -0.436428 0 -0.0263902 -0.437673 0 
-0.00398197 -0.435157 0 -0.0269111 -0.413056 0 0.0303295 -0.41168 0 
0.0430252 -0.436261 0 0.0197084 -0.438276 0 0.00662677 -0.412583 0 
0.0661815 -0.437327 0 0.0786058 -0.413677 0 0.0909664 -0.438199 0 
0.0543804 -0.410707 0 0.115966 -0.437447 0 0.129676 -0.412788 0 
0.103706 -0.414244 0 0.140203 -0.437712 0 0.187458 -0.437769 0 
0.163775 -0.436637 0 0.178624 -0.412553 0 0.153269 -0.411408 0 
0.203129 -0.413237 0 0.236708 -0.437958 0 0.211692 -0.438093 0 
0.22832 -0.41469 0 0.276997 -0.40497 0 0.296965 -0.419373 0 
0.261304 -0.43744 0 0.257206 -0.414953 0 0.28482 -0.438538 0 
0.335124 -0.435088 0 0.338445 -0.412426 0 0.313106 -0.43885 0 
0.315886 -0.406433 0 0.372891 -0.423404 0 0.392446 -0.408054 0 
0.390461 -0.441028 0 0.360768 -0.403924 0 0.358227 -0.439772 0 
0.424461 -0.406534 0 0.442712 -0.421124 0 0.425816 -0.440866 0 
0.408647 -0.425924 0 0.491246 -0.408358 0 0.456279 -0.440937 0 
0.472874 -0.423388 0 0.45766 -0.402372 0 0.488641 -0.439247 0 
0.5375 -0.4125 0 0.5375 -0.4375 0 0.5125 -0.4375 0 
0.5125 -0.4125 0 -0.5125 -0.3625 0 -0.5125 -0.3875 0 
-0.5375 -0.3875 0 -0.5375 -0.3625 0 -0.479449 -0.364067 0 
-0.489645 -0.38442 0 -0.458208 -0.351324 0 -0.46431 -0.388066 0 
-0.446915 -0.373842 0 -0.42765 -0.386709 0 -0.403729 -0.385816 0 
-0.420881 -0.361012 0 -0.394282 -0.363996 0 -0.352004 -0.354075 0 
-0.36857 -0.370703 0 -0.378392 -0.391963 0 -0.332631 -0.372574 0 
-0.314695 -0.387419 0 -0.305139 -0.361438 0 -0.349078 -0.388225 0 
-0.259548 -0.38459 0 -0.255876 -0.350291 0 -0.274141 -0.366244 0 
-0.290651 -0.384324 0 -0.236992 -0.36277 0 -0.21276 -0.383922 0 
-0.236956 -0.387381 0 -0.212514 -0.358015 0 -0.188494 -0.360689 0 
-0.163813 -0.361334 0 -0.189232 -0.385921 0 -0.165136 -0.386169 0 
-0.101276 -0.382254 0 -0.102755 -0.353601 0 -0.141772 -0.354718 0 
-0.141418 -0.384331 0 -0.122386 -0.372499 0 -0.0546981 -0.382228 0 
-0.0787121 -0.38387 0 -0.0552236 -0.357809 0 -0.0799083 -0.358074 0 
-0.0176614 -0.365808 0 -0.0326857 -0.383527 0 -0.0101881 -0.397357 0 
0.00436166 -0.378256 0 0.0326523 -0.363594 0 0.0100407 -0.353755 0 
0.025635 -0.388102 0 0.0808921 -0.362992 0 0.0582191 -0.360832 0 
0.0996033 -0.389743 0 0.0754915 -0.38847 0 0.0510993 -0.38557 0 
0.137633 -0.372401 0 0.124392 -0.390103 0 0.105194 -0.365934 0 
0.122818 -0.352195 0 0.156198 -0.388415 0 0.192568 -0.36843 0 
0.180861 -0.388111 0 0.163353 -0.363593 0 0.208028 -0.390984 0 
0.211783 -0.354048 0 0.224835 -0.375489 0 0.244921 -0.362708 0 
0.239896 -0.395079 0 0.260802 -0.383749 0 0.279008 -0.369487 0 
0.294759 -0.388793 0 0.315934 -0.378528 0 0.33843 -0.386242 0 
0.345412 -0.364739 0 0.300225 -0.357548 0 0.323379 -0.352118 0 
0.372428 -0.36147 0 0.394957 -0.387378 0 0.368647 -0.383549 0 
0.399428 -0.365276 0 0.448987 -0.382478 0 0.42186 -0.386357 0 
0.428637 -0.364593 0 0.488899 -0.369152 0 0.479981 -0.38878 0 
0.462845 -0.364217 0 0.5375 -0.3625 0 0.5375 -0.3875 0 
0.5125 -0.3875 0 0.5125 -0.3625 0 -0.5375 -0.3125 0 
-0.5375 -0.3375 0 -0.5125 -0.3125 0 -0.5125 -0.3375 0 
-0.490838 -0.344474 0 -0.488757 -0.313883 0 -0.452293 -0.316436 0 
-0.470877 -0.328878 0 -0.426975 -0.321694 0 -0.40686 -0.339565 0 
-0.437168 -0.343101 0 -0.404987 -0.310954 0 -0.356081 -0.330939 0 
-0.384058 -0.321189 0 -0.358403 -0.307813 0 -0.379664 -0.344304 0 
-0.306216 -0.330953 0 -0.326485 -0.347918 0 -0.301471 -0.309306 0 
-0.328081 -0.301377 0 -0.332046 -0.323633 0 -0.286196 -0.344855 0 
-0.277868 -0.302549 0 -0.273391 -0.32551 0 -0.249993 -0.325028 0 
-0.228018 -0.336782 0 -0.214981 -0.314951 0 -0.237211 -0.304578 0 
-0.152126 -0.330993 0 -0.161647 -0.307427 0 -0.199877 -0.334553 0 
-0.175115 -0.336993 0 -0.184886 -0.312146 0 -0.1217 -0.340987 0 
-0.107505 -0.315967 0 -0.131322 -0.317698 0 -0.0656287 -0.333847 0 
-0.071727 -0.308986 0 -0.0899021 -0.33062 0 -0.0501358 -0.300341 0 
-0.020496 -0.31831 0 -0.0342527 -0.349007 0 -0.00918919 -0.339764 0 
-0.0429031 -0.325185 0 0.0432799 -0.339557 0 0.0296913 -0.305515 0 
0.00473343 -0.315087 0 0.0214743 -0.331646 0 0.0505631 -0.313991 0 
0.0803785 -0.311698 0 0.06768 -0.33358 0 0.0905051 -0.33995 0 
0.110506 -0.329963 0 0.101878 -0.306222 0 0.133688 -0.322926 0 
0.146659 -0.344687 0 0.185621 -0.312556 0 0.180423 -0.346397 0 
0.153856 -0.306724 0 0.164661 -0.32782 0 0.221095 -0.318225 0 
0.231403 -0.340643 0 0.243573 -0.305455 0 0.199976 -0.331676 0 
0.284932 -0.337425 0 0.263681 -0.349038 0 0.252221 -0.327223 0 
0.275239 -0.315567 0 0.29909 -0.306296 0 0.331063 -0.325351 0 
0.32342 -0.300837 0 0.307956 -0.329277 0 0.377119 -0.302629 0 
0.350075 -0.341573 0 0.392044 -0.322348 0 0.378803 -0.340434 0 
0.359882 -0.320177 0 0.42211 -0.32766 0 0.409532 -0.305745 0 
0.440955 -0.3471 0 0.445871 -0.321008 0 0.407928 -0.345384 0 
0.467932 -0.310443 0 0.489215 -0.320242 0 0.464998 -0.338991 0 
0.48785 -0.344882 0 0.5125 -0.3125 0 0.5375 -0.3125 0 
0.5375 -0.3375 0 0.5125 -0.3375 0 -0.5375 -0.2875 0 
-0.5125 -0.2875 0 -0.5375 -0.2625 0 -0.5125 -0.2625 0 
-0.488804 -0.262729 0 -0.464915 -0.294784 0 -0.466194 -0.265998 0 
-0.487431 -0.288568 0 -0.420646 -0.265291 0 -0.411696 -0.288201 0 
-0.444594 -0.275412 0 -0.43525 -0.296755 0 -0.37938 -0.295686 0 
-0.38291 -0.250997 0 -0.364936 -0.270931 0 -0.391492 -0.275602 0 
-0.342538 -0.255284 0 -0.306749 -0.28505 0 -0.301903 -0.256664 0 
-0.325707 -0.271228 0 -0.347517 -0.286094 0 -0.284012 -0.277394 0 
-0.257633 -0.292792 0 -0.266353 -0.262651 0 -0.214918 -0.260237 0 
-0.200613 -0.294172 0 -0.223034 -0.283616 0 -0.244563 -0.271393 0 
-0.154102 -0.27114 0 -0.172551 -0.284475 0 -0.192241 -0.270575 0 
-0.179734 -0.251339 0 -0.130012 -0.267059 0 -0.141359 -0.294576 0 
-0.108957 -0.250748 0 -0.117999 -0.289907 0 -0.0997771 -0.271831 0 
-0.0777665 -0.25569 0 -0.0502065 -0.274024 0 -0.0920273 -0.296734 0 
-0.0729229 -0.27979 0 -0.0279064 -0.26489 0 -0.00399584 -0.292033 0 
-0.00583887 -0.266787 0 -0.0276778 -0.29294 0 0.0486474 -0.255437 0 
0.0444695 -0.279558 0 0.0189992 -0.284297 0 0.022072 -0.260347 0 
0.0852008 -0.282344 0 0.0716072 -0.263515 0 0.0626443 -0.292786 0 
0.101109 -0.256513 0 0.130045 -0.265159 0 0.125484 -0.299319 0 
0.109475 -0.279609 0 0.145082 -0.283861 0 0.150232 -0.251218 0 
0.166415 -0.269909 0 0.175435 -0.29179 0 0.188359 -0.257228 0 
0.19845 -0.277563 0 0.207752 -0.298865 0 0.230535 -0.286054 0 
0.220191 -0.264587 0 0.243738 -0.253016 0 0.267153 -0.293808 0 
0.253262 -0.274501 0 0.290686 -0.283934 0 0.276344 -0.263772 0 
0.329995 -0.255985 0 0.344784 -0.275749 0 0.31666 -0.278469 0 
[...]
POINT_DATA 2798
SCALARS id float
LOOKUP_TABLE default
2600 2601 2620 2621 2640 2642 2643 2641 2645 
2644 2646 2647 2650 2651 2649 2648 2655 2653 
2654 2652 2656 2659 2657 2658 2663 2660 2661 
2662 2664 2666 2667 2665 2668 2671 2670 2669 
2672 2674 2675 2673 2676 2677 2681 2679 2678 
2680 2685 2684 2682 2683 2689 2686 2687 2688 
2690 2692 2691 2693 2695 2697 2694 2696 2699 
2700 2701 2698 2703 2704 2702 2705 2706 2708 
2707 2709 2711 2713 2710 2712 2714 2716 2715 
2717 2721 2719 2718 2720 2722 2742 2723 2743 
2623 2622 2603 2602 1697 1678 1696 1660 1732 
1750 1714 1768 1786 1804 1823 1840 1894 1949 
1876 1858 1913 1966 1967 1985 1912 1930 1984 
2111 2093 1948 2129 2020 2038 2147 2184 2074 
2165 2056 2201 2110 2183 2092 2219 2128 2146 
2164 2237 2291 2200 2182 2218 2236 2329 2254 
2310 2272 2330 2328 2290 2308 2309 2347 2331 
2350 2326 2327 2349 2366 2364 2346 2365 2348 
2344 2363 2345 2368 2383 2371 2380 2370 2362 
2390 2367 2382 2386 2387 2381 2385 2389 2384 
2745 2744 2724 2725 2625 2624 2604 2605 1679 
1661 1733 1715 1787 1805 1841 1824 1842 1895 
1859 1822 1914 1931 1950 1877 2003 2021 2004 
1986 2002 2112 2057 2075 2131 2167 2130 2148 
2202 2221 2185 2166 2203 2238 2220 2257 2239 
2275 2256 2255 2274 2292 2293 2273 2315 2312 
2332 2313 2311 2317 2316 2300 2283 2333 2335 
2334 2336 2352 2248 2353 2318 2351 2354 2284 
2369 2337 2372 340 1461 1620 0 2090 2267 
1101 2391 2231 2213 2355 2388 280 2747 2746 
2726 2727 2607 2606 2627 2626 1662 1698 1769 
1716 1825 1843 1806 1862 1896 1861 1878 1860 
2005 1932 2023 1968 1933 2022 2041 2040 2058 
2039 2076 2077 2186 2150 2094 2149 2113 2222 
2223 2204 2258 2241 2240 2242 2277 2276 2294 
2259 2296 2297 2278 2295 2298 2299 2314 2282 
2247 2265 2125 2230 1441 2266 2018 21 1362 
1875 1521 2142 60 2195 1481 100 1161 1460 
1541 20 1540 1122 1141 1281 1201 1400 1520 
1341 1221 1420 1183 320 2373 2301 2729 2749 
2748 2728 2608 2628 2609 2629 1717 1734 1752 
1680 1807 1844 1751 1788 1879 1916 1897 1880 
1934 1987 1969 1951 1915 2024 2059 2060 2097 
2095 2096 2078 2169 2132 2114 2115 2205 2168 
2190 2206 2207 2191 2225 2224 2208 2243 2279 
2261 2260 2263 2246 2280 2262 2264 2194 2281 
2054 2072 2212 2229 1929 1893 1581 1522 1911 
1838 120 140 1946 180 1561 1361 1301 40 
1910 1820 1928 1181 1600 1241 160 1580 1261 
1766 1729 1040 1440 1001 1321 1081 1121 2750 
2731 2730 2751 2610 2611 2631 2630 1771 1663 
1735 1753 1899 1898 1826 1770 1881 1789 1953 
1971 1935 1988 1970 1952 1989 2043 2006 2042 
2061 2062 2080 2098 2079 2099 2116 2081 2064 
2133 2151 2188 2187 2189 2172 2170 2156 2173 
2139 2174 2209 2140 2244 2226 2245 2211 2228 
2227 2193 2124 2036 2177 2159 2176 1821 2035 
1857 2107 1839 1803 1 1731 1982 1998 1837 
1963 462 1926 1802 900 1892 1784 1713 1560 
1749 1818 1300 1873 1712 1767 2733 2753 2752 
2732 2633 2612 2632 2613 1790 1699 1808 1718 
1863 1900 1882 1901 1917 1954 1918 1936 1972 
2008 1990 2007 2025 2044 2026 2027 2010 2045 
2028 2063 2029 1993 2046 2117 2047 2082 2134 
2100 2135 2152 2065 2171 2101 2136 2155 2192 
2153 2138 2154 2123 2120 2210 2158 2089 2157 
2141 2175 2052 2071 2070 2105 2053 2087 2000 
2106 2050 2085 1981 2034 2017 2088 1964 1856 
1693 2016 1980 1874 762 1979 1942 820 1909 
1783 1120 1853 542 1819 1675 1220 1891 2734 
2755 2754 2735 2615 2614 2635 2634 1700 1772 
1681 1846 1864 1827 1845 1920 1919 1937 1883 
1902 1956 1938 1903 1973 1885 1955 1974 2009 
1991 1939 1992 1977 1924 1976 1958 1905 1975 
1835 1817 1959 2030 1941 2011 1852 1781 2012 
1816 2083 1711 1994 1925 2048 1798 1995 2137 
1689 1705 1780 2119 2121 1723 1960 2103 2066 
2118 2068 2122 2015 2014 2084 2104 2032 2033 
2051 2102 2049 2069 1908 1890 1785 1999 80 
1962 1945 1997 1180 1080 2145 1676 2325 2737 
2736 2756 2757 2616 2636 2617 2637 1719 1736 
1664 1682 1865 1737 1809 1754 1828 220 1866 
1847 1884 1792 1867 1829 1738 1957 1868 1848 
1921 1811 1831 1849 1940 1887 1922 1923 1813 
1904 1870 1871 1869 1758 1739 1722 1832 1794 
1741 1834 1886 1777 1850 1727 1776 1670 1775 
1740 1779 1851 1795 1797 1742 1815 2234 1673 
2013 2357 1906 1944 1745 1708 1746 1978 1814 
1799 1100 1888 2086 1762 2031 2323 1996 1961 
2067 2377 1927 1709 1140 2397 2306 2288 1889 
1710 2758 2739 2738 2759 2564 2565 2567 2566 
2569 2570 2568 2571 2573 2574 2572 2575 2579 
2577 2578 2576 2582 2581 2580 2583 2586 2587 
2585 2584 2591 2588 2590 2589 2593 2592 2594 
2595 2597 2596 2598 2599 2619 2639 2638 2618 
1665 1701 1666 1683 1102 1720 1791 1062 1810 
1773 1702 1755 1401 1601 1667 1684 2160 1677 
1222 1703 1262 1669 402 1685 861 1793 1830 
2338 1812 1774 2392 1721 980 260 1757 1756 
2374 1686 2250 1704 2356 1061 2215 404 1142 
843 1282 343 2232 2320 2251 940 681 1760 
1543 2303 2214 1283 1674 1778 1691 2361 1671 
1726 1796 1744 2376 1759 1833 2359 1943 2198 
2252 2375 1763 1695 1728 1725 800 2760 2740 
2761 2741 2765 2762 2764 2763 2768 2766 2769 
2767 2771 2773 2772 2770 2775 2777 2776 2774 
2779 2778 2781 2780 2783 2782 2785 2784 2789 
2788 2787 2786 2793 2791 2792 2790 2797 2794 
2796 2795 1690 341 520 1544 1263 780 162 
1500 1801 1836 1730 2289 680 2342 1765 421 
720 2217 1380 223 1200 1800 460 1041 2091 
1748 1747 1242 881 482 802 1260 1872 1907 
822 1320 862 1764 1782 921 263 1854 941 
1692 281 981 1643 363 1668 541 221 620 
560 2285 1202 481 1021 1694 1340 2178 2319 
101 362 701 682 381 1240 422 2181 501 
641 521 423 600 920 321 124 901 442 
264 721 1000 240 2143 262 2249 722 463 
783 403 742 621 801 760 382 323 703 
2126 1182 962 1502 903 1322 883 1523 1947 
1402 1023 1342 1381 723 1687 804 1043 1621 
1184 961 1022 1243 1724 1003 2358 1707 2343 
2271 1303 2396 1582 1123 601 1743 41 1223 
2394 640 1542 1761 461 161 1672 1688 2019 
1020 806 2339 2199 2287 2270 761 2341 2360 
163 2304 2307 2037 1480 2180 2321 1855 2378 
1060 2055 1105 984 1422 1483 1124 766 1145 
1004 1302 1045 845 2197 2109 1064 1564 964 
200 1983 1143 1641 1106 1602 1706 1383 1264 
141 1224 1363 660 81 1065 360 143 42 
1344 2324 2268 480 1443 1404 261 2340 61 
2162 1385 1563 561 83 860 500 182 22 
420 1364 1423 2269 3 1384 1345 2127 1280 
1360 2286 104 2379 2322 2001 540 1160 121 
43 700 441 380 1605 122 1604 302 4 
103 84 1585 123 1603 102 241 1485 1565 
62 1525 1504 401 740 1505 361 282 105 
44 6 301 242 580 224 283 27 222 
85 184 661 383 203 304 880 960 781 
364 782 342 522 245 1421 284 841 922 
582 2302 602 741 942 1082 803 923 583 
2179 1203 622 821 2216 643 823 201 763 
744 1162 1382 2305 1063 181 1044 864 983 
2235 1204 1083 2161 963 1103 1042 884 902 
1185 2393 2395 844 2253 1144 665 786 840 
2163 2233 2196 2108 724 705 904 546 626 
785 526 506 784 646 1024 725 765 745 
805 746 924 787 687 905 1482 1501 925 
1104 1562 985 1086 1164 1463 1025 1244 1442 
965 945 1225 1066 1125 907 1087 986 1424 
1343 1085 1047 1503 1366 1462 1403 1006 1186 
23 1304 1323 987 967 1067 1365 1227 1265 
1207 400 1524 63 1644 1642 82 440 1187 
1325 1965 1622 1286 1305 1324 1266 1346 1623 
1545 2 142 1425 1405 1406 1584 1583 144 
1465 1426 25 1486 1624 1484 1466 1446 5 
26 1645 45 64 1547 24 1586 1506 244 
1567 183 344 443 324 243 86 46 165 
66 322 166 325 305 225 285 186 365 
702 662 147 683 563 483 1002 502 444 
562 503 366 385 405 642 543 664 544 
326 863 1640 943 684 623 464 663 523 
982 603 743 764 1163 882 625 842 825 
704 604 300 566 584 605 585 425 347 
446 465 505 426 545 525 486 487 685 
466 527 586 507 547 606 666 686 607 
826 706 885 627 865 944 866 807 867 
886 767 887 1084 827 906 788 728 848 
847 868 966 748 849 1046 689 888 869 
1165 926 946 1005 1126 908 947 1026 1205 
948 1007 927 928 1088 1226 1284 1206 1027 
1285 2073 1245 2144 1128 1166 1109 1127 1246 
1069 1208 1464 1147 1167 1267 1247 1188 1228 
1148 1306 1367 1209 1387 1444 1386 1445 1307 
1347 1368 1327 1546 1407 1625 1487 1428 1427 
1566 1447 1467 1448 204 1526 1468 1527 1646 
1626 65 1647 1607 1627 303 202 7 205 
47 164 125 67 185 146 581 206 126 
345 286 266 226 187 424 265 246 384 
306 227 386 346 287 208 229 247 209 
228 624 484 307 644 824 504 565 485 
564 524 645 309 329 328 445 387 407 
348 367 368 427 388 447 408 468 467 
448 449 469 567 508 488 568 587 548 
647 747 726 549 608 588 846 589 667 
707 727 668 648 628 649 708 688 629 
709 670 669 768 749 808 828 729 769 
850 829 789 870 830 809 889 891 890 
909 851 910 988 1107 968 949 1146 1068 
1008 1028 1089 989 1108 1049 1029 1048 1009 
1030 1110 1050 1070 1090 1129 1091 1130 1111 
1149 1131 1168 1229 1210 1287 1189 1326 1268 
1288 1248 1348 1309 1308 1328 1388 1349 1329 
1408 1369 1409 1488 1429 1606 1449 1469 1507 
1548 1568 1508 1528 1509 1587 1608 1588 1510 
1529 1549 1569 1648 1628 1589 145 1609 8 
87 106 167 88 48 28 127 49 68 
148 108 107 207 69 89 189 168 128 
150 188 129 149 327 267 170 248 169 
268 249 269 210 288 289 308 250 406 
251 270 290 232 291 310 349 271 409 
370 389 350 330 369 429 410 428 390 
411 450 430 489 470 490 528 509 529 
491 511 510 551 570 550 530 569 609 
591 590 571 610 631 630 611 671 651 
650 710 690 691 711 730 751 750 731 
771 770 791 790 810 871 811 831 892 
872 929 852 930 912 931 911 969 970 
950 951 1010 971 991 990 1012 1031 1011 
1032 1071 1052 1092 1072 1051 1093 1112 1113 
1132 1150 1169 1170 1190 1151 1269 1230 1231 
1211 1249 1270 1250 1290 1289 1331 1310 1311 
1291 1330 1350 1351 1370 1371 1390 1389 1410 
1430 1450 1470 1489 1491 1490 1471 1531 1511 
1530 1550 1629 1590 1571 1570 1551 1649 1630 
1610 1611 1650 1631 9 29 30 50 31 
11 10 51 90 70 71 109 110 130 
111 91 151 132 190 133 131 152 191 
172 171 230 211 231 252 253 273 234 
233 292 272 293 332 331 312 311 352 
351 371 372 412 431 391 392 452 471 
432 451 493 492 472 531 532 513 512 
573 553 572 552 593 612 592 613 632 
652 673 672 633 653 713 692 712 693 
733 732 753 752 772 792 773 793 812 
832 833 813 854 874 873 853 893 894 
913 914 953 952 932 933 972 973 993 
992 1013 1054 1033 1034 1073 1115 1074 1053 
1094 1133 1134 1114 1152 1153 1191 1171 1172 
1212 1233 1192 1213 1253 1232 1252 1251 1313 
1293 1271 1292 1312 1272 1332 1353 1352 1333 
1391 1373 1372 1431 1432 1412 1411 1451 1452 
1473 1492 1472 1493 1513 1532 1512 1553 1572 
1552 1533 1592 1573 1591 1593 1612 1613 1633 
1632 1651 1653 1652 12 32 13 33 53 
52 72 93 92 112 73 155 134 154 
153 113 173 194 174 193 212 192 213 
214 375 315 254 314 274 294 333 313 
354 394 395 353 415 373 393 435 414 
413 434 455 454 433 475 453 474 495 
515 494 473 555 533 514 534 575 574 
554 595 615 594 655 614 635 675 654 
695 634 674 715 714 735 694 775 734 
755 754 815 774 795 794 835 814 896 
834 916 875 935 955 855 975 915 895 
995 1035 954 934 1015 1055 994 974 1075 
1014 1216 1136 1095 1176 1175 1135 1155 1195 
1194 1174 1214 1154 1193 1173 1235 1255 1234 
1275 1254 1295 1274 1335 1315 1273 1314 1355 
1375 1294 1374 1334 1394 1395 1354 1393 1435 
1392 1414 1415 1475 1413 1434 1455 1433 1454 
1515 1474 1453 1495 1514 1535 1494 1534 1555 
1575 1554 1595 1574 1594 1614 1635 1615 1655 
1654 15 1634 55 14 35 54 95 75 
74 34 94 114 115 156 175 215 135 
196 176 276 195 296 255 295 275 235 
637 334 617 396 416 374 657 436 476 
677 456 697 757 496 737 516 717 535 
797 777 536 817 556 576 837 857 877 
616 596 656 636 917 897 957 696 676 
937 977 716 736 997 1017 1037 776 756 
796 1057 816 1077 1097 836 856 1117 876 
1177 956 936 1137 996 1197 1217 976 1277 
1016 1257 1036 1237 1297 1056 1076 1317 1357 
1096 1337 1116 1377 1156 1397 1157 1215 1196 
1437 1417 1236 1457 1477 1256 1517 1497 1276 
1316 1296 1537 1557 1336 1577 1356 1376 1597 
1396 1617 1637 1436 1657 1416 17 1456 37 
57 1476 1496 1516 77 97 137 117 1556 
1536 177 1596 157 1576 1636 197 217 1616 
1656 16 277 237 36 297 317 56 357 
337 96 76 116 136 417 397 257 457 
437 216 477 236 376 256 497 377 517 
336 356 557 316 537 335 355 577 597 
939 919 1258 1238 979 1298 959 1278 1338 
1318 999 1019 1358 1398 1059 1079 1039 1378 
1418 1438 1099 1119 1139 1159 1478 1458 1199 
1179 1518 1498 1219 1538 1558 1239 1279 1598 
1578 1259 1618 1638 1319 1299 1359 18 1339 
1658 38 1399 1379 58 1419 1459 1439 98 
78 118 158 1479 1499 138 198 1519 178 
1539 218 1559 238 1579 258 278 1619 1599 
298 1659 318 1639 59 358 19 39 338 
398 99 79 378 119 418 438 139 458 
478 498 159 179 219 538 518 199 259 
578 558 239 299 598 618 279 638 319 
339 658 359 379 678 698 738 399 718 
419 778 459 758 439 818 499 479 798 
858 539 519 838 559 878 579 898 938 
619 599 918 958 978 659 639 699 998 
1018 679 1038 719 1058 739 1078 759 1098 
779 1118 1138 799 819 859 1178 1158 839 
879 1198 899 1218 2400 2401 2399 2398 2405 
2403 2402 2404 2406 2407 2409 2408 2412 2413 
2411 2410 2416 2414 2415 2417 2420 2418 2419 
2421 2423 2427 2422 2426 2425 2424 2428 2431 
2430 2429 2432 2433 2434 2435 2439 2437 2436 
2438 2442 2440 2441 2443 2444 2445 2447 2446 
2448 2451 2449 2450 2455 2452 2454 2453 2457 
2459 2456 2458 2461 2462 2460 2463 2466 2467 
2465 2464 2471 2470 2469 2468 2474 2475 2472 
2473 2476 2478 2481 2480 2477 2479 2482 2483 
2484 2485 2487 2486 2488 2489 2493 2492 2490 
2491 2497 2496 2495 2494 2499 2498 2500 2501 
2505 2503 2504 2502 2507 2506 2508 2509 2511 
2512 2513 2510 2517 2515 2514 2516 2518 2520 
2521 2519 2524 2525 2522 2523 2527 2526 2528 
2529 2533 2532 2530 2531 2534 2535 2536 2537 
2538 2539 2540 2542 2541 2543 2547 2546 2544 
2545 2548 2549 2550 2551 2553 2554 2555 2552 
2558 2556 2557 2559 2560 2561 2562 2563 
FIELD FieldData 7
r 3 2798 float
-0.5375 -0.4875 0 -0.5375 -0.4625 0 -0.5125 -0.4875 0 
-0.5125 -0.4625 0 -0.487805 -0.4875 0 -0.463415 -0.4875 0 
-0.463415 -0.4625 0 -0.487805 -0.4625 0 -0.439024 -0.4625 0 
-0.439024 -0.4875 0 -0.414634 -0.4875 0 -0.414634 -0.4625 0 
-0.365854 -0.4875 0 -0.365854 -0.4625 0 -0.390244 -0.4625 0 
-0.390244 -0.4875 0 -0.317073 -0.4625 0 -0.341463 -0.4625 0 
-0.317073 -0.4875 0 -0.341463 -0.4875 0 -0.292683 -0.4875 0 
-0.268293 -0.4625 0 -0.292683 -0.4625 0 -0.268293 -0.4875 0 
-0.219512 -0.4625 0 -0.243902 -0.4875 0 -0.243902 -0.4625 0 
-0.219512 -0.4875 0 -0.195122 -0.4875 0 -0.170732 -0.4875 0 
-0.170732 -0.4625 0 -0.195122 -0.4625 0 -0.146341 -0.4875 0 
-0.121951 -0.4625 0 -0.121951 -0.4875 0 -0.146341 -0.4625 0 
-0.097561 -0.4875 0 -0.0731707 -0.4875 0 -0.0731707 -0.4625 0 
-0.097561 -0.4625 0 -0.0487805 -0.4875 0 -0.0487805 -0.4625 0 
-1.86265e-08 -0.4625 0 -0.0243903 -0.4625 0 -0.0243903 -0.4875 0 
-1.86265e-08 -0.4875 0 0.0487805 -0.4625 0 0.0487805 -0.4875 0 
0.0243902 -0.4875 0 0.0243902 -0.4625 0 0.097561 -0.4625 0 
0.0731707 -0.4875 0 0.0731707 -0.4625 0 0.097561 -0.4875 0 
0.121951 -0.4875 0 0.146341 -0.4875 0 0.121951 -0.4625 0 
0.146341 -0.4625 0 0.170732 -0.4625 0 0.195122 -0.4625 0 
0.170732 -0.4875 0 0.195122 -0.4875 0 0.219512 -0.4625 0 
0.243902 -0.4875 0 0.243902 -0.4625 0 0.219512 -0.4875 0 
0.268293 -0.4625 0 0.292683 -0.4875 0 0.268293 -0.4875 0 
0.292683 -0.4625 0 0.317073 -0.4875 0 0.341463 -0.4875 0 
0.317073 -0.4625 0 0.341463 -0.4625 0 0.365854 -0.4625 0 
0.390244 -0.4625 0 0.365854 -0.4875 0 0.390244 -0.4875 0 
0.414634 -0.4875 0 0.439024 -0.4875 0 0.414634 -0.4625 0 
0.439024 -0.4625 0 0.487805 -0.4625 0 0.463415 -0.4625 0 
0.463415 -0.4875 0 0.487805 -0.4875 0 0.5125 -0.4875 0 
0.5375 -0.4875 0 0.5125 -0.4625 0 0.5375 -0.4625 0 
-0.5125 -0.4125 0 -0.5125 -0.4375 0 -0.5375 -0.4125 0 
-0.5375 -0.4375 0 -0.488527 -0.410885 0 -0.464155 -0.43795 0 
-0.465192 -0.412845 0 -0.488512 -0.436953 0 -0.417429 -0.438157 0 
-0.442446 -0.408515 0 -0.440834 -0.436054 0 -0.419143 -0.412722 0 
-0.39335 -0.43669 0 -0.370364 -0.437344 0 -0.395601 -0.411761 0 
-0.368165 -0.413016 0 -0.301456 -0.438044 0 -0.320145 -0.410219 0 
-0.324426 -0.436217 0 -0.346961 -0.43706 0 -0.343478 -0.410354 0 
-0.253531 -0.414099 0 -0.296168 -0.412381 0 -0.274475 -0.40564 0 
-0.278535 -0.435167 0 -0.255821 -0.438653 0 -0.207693 -0.43677 0 
-0.207459 -0.410333 0 -0.230298 -0.411498 0 -0.230952 -0.437564 0 
-0.184157 -0.411554 0 -0.184462 -0.437336 0 -0.161031 -0.43683 0 
-0.160285 -0.411395 0 -0.115953 -0.403452 0 -0.116864 -0.433219 0 
-0.136992 -0.410014 0 -0.137928 -0.437462 0 -0.0720869 -0.409104 0 
-0.0721715 -0.436002 0 -0.0946435 -0.411617 0 -0.0953337 -0.437967 0 
-0.0494856 -0.409131 0 -0.0500508 -0.436428 0 -0.0263902 -0.437673 0 
-0.00398197 -0.435157 0 -0.0269111 -0.413056 0 0.0303295 -0.41168 0 
0.0430252 -0.436261 0 0.0197084 -0.438276 0 0.00662677 -0.412583 0 
0.0661815 -0.437327 0 0.0786058 -0.413677 0 0.0909664 -0.438199 0 
0.0543804 -0.410707 0 0.115966 -0.437447 0 0.129676 -0.412788 0 
0.103706 -0.414244 0 0.140203 -0.437712 0 0.187458 -0.437769 0 
0.163775 -0.436637 0 0.178624 -0.412553 0 0.153269 -0.411408 0 
0.203129 -0.413237 0 0.236708 -0.437958 0 0.211692 -0.438093 0 
0.22832 -0.41469 0 0.276997 -0.40497 0 0.296965 -0.419373 0 
0.261304 -0.43744 0 0.257206 -0.414953 0 0.28482 -0.438538 0 
0.335124 -0.435088 0 0.338445 -0.412426 0 0.313106 -0.43885 0 
0.315886 -0.406433 0 0.372891 -0.423404 0 0.392446 -0.408054 0 
0.390461 -0.441028 0 0.360768 -0.403924 0 0.358227 -0.439772 0 
0.424461 -0.406534 0 0.442712 -0.421124 0 0.425816 -0.440866 0 
0.408647 -0.425924 0 0.491246 -0.408358 0 0.456279 -0.440937 0 
0.472874 -0.423388 0 0.45766 -0.402372 0 0.488641 -0.439247 0 
0.5375 -0.4125 0 0.5375 -0.4375 0 0.5125 -0.4375 0 
0.5125 -0.4125 0 -0.5125 -0.3625 0 -0.5125 -0.3875 0 
-0.5375 -0.3875 0 -0.5375 -0.3625 0 -0.479449 -0.364067 0 
-0.489645 -0.38442 0 -0.458208 -0.351324 0 -0.46431 -0.388066 0 
-0.446915 -0.373842 0 -0.42765 -0.386709 0 -0.403729 -0.385816 0 
-0.420881 -0.361012 0 -0.394282 -0.363996 0 -0.352004 -0.354075 0 
-0.36857 -0.370703 0 -0.378392 -0.391963 0 -0.332631 -0.372574 0 
-0.314695 -0.387419 0 -0.305139 -0.361438 0 -0.349078 -0.388225 0 
-0.259548 -0.38459 0 -0.255876 -0.350291 0 -0.274141 -0.366244 0 
-0.290651 -0.384324 0 -0.236992 -0.36277 0 -0.21276 -0.383922 0 
-0.236956 -0.387381 0 -0.212514 -0.358015 0 -0.188494 -0.360689 0 
-0.163813 -0.361334 0 -0.189232 -0.385921 0 -0.165136 -0.386169 0 
-0.101276 -0.382254 0 -0.102755 -0.353601 0 -0.141772 -0.354718 0 
-0.141418 -0.384331 0 -0.122386 -0.372499 0 -0.0546981 -0.382228 0 
-0.0787121 -0.38387 0 -0.0552236 -0.357809 0 -0.0799083 -0.358074 0 
-0.0176614 -0.365808 0 -0.0326857 -0.383527 0 -0.0101881 -0.397357 0 
0.00436166 -0.378256 0 0.0326523 -0.363594 0 0.0100407 -0.353755 0 
0.025635 -0.388102 0 0.0808921 -0.362992 0 0.0582191 -0.360832 0 
0.0996033 -0.389743 0 0.0754915 -0.38847 0 0.0510993 -0.38557 0 
0.137633 -0.372401 0 0.124392 -0.390103 0 0.105194 -0.365934 0 
0.122818 -0.352195 0 0.156198 -0.388415 0 0.192568 -0.36843 0 
0.180861 -0.388111 0 0.163353 -0.363593 0 0.208028 -0.390984 0 
0.211783 -0.354048 0 0.224835 -0.375489 0 0.244921 -0.362708 0 
0.239896 -0.395079 0 0.260802 -0.383749 0 0.279008 -0.369487 0 
0.294759 -0.388793 0 0.315934 -0.378528 0 0.33843 -0.386242 0 
0.345412 -0.364739 0 0.300225 -0.357548 0 0.323379 -0.352118 0 
0.372428 -0.36147 0 0.394957 -0.387378 0 0.368647 -0.383549 0 
0.399428 -0.365276 0 0.448987 -0.382478 0 0.42186 -0.386357 0 
0.428637 -0.364593 0 0.488899 -0.369152 0 0.479981 -0.38878 0 
0.462845 -0.364217 0 0.5375 -0.3625 0 0.5375 -0.3875 0 
0.5125 -0.3875 0 0.5125 -0.3625 0 -0.5375 -0.3125 0 
-0.5375 -0.3375 0 -0.5125 -0.3125 0 -0.5125 -0.3375 0 
-0.490838 -0.344474 0 -0.488757 -0.313883 0 -0.452293 -0.316436 0 
-0.470877 -0.328878 0 -0.426975 -0.321694 0 -0.40686 -0.339565 0 
-0.437168 -0.343101 0 -0.404987 -0.310954 0 -0.356081 -0.330939 0 
-0.384058 -0.321189 0 -0.358403 -0.307813 0 -0.379664 -0.344304 0 
-0.306216 -0.330953 0 -0.326485 -0.347918 0 -0.301471 -0.309306 0 
-0.328081 -0.301377 0 -0.332046 -0.323633 0 -0.286196 -0.344855 0 
-0.277868 -0.302549 0 -0.273391 -0.32551 0 -0.249993 -0.325028 0 
-0.228018 -0.336782 0 -0.214981 -0.314951 0 -0.237211 -0.304578 0 
-0.152126 -0.330993 0 -0.161647 -0.307427 0 -0.199877 -0.334553 0 
-0.175115 -0.336993 0 -0.184886 -0.312146 0 -0.1217 -0.340987 0 
-0.107505 -0.315967 0 -0.131322 -0.317698 0 -0.0656287 -0.333847 0 
-0.071727 -0.308986 0 -0.0899021 -0.33062 0 -0.0501358 -0.300341 0 
-0.020496 -0.31831 0 -0.0342527 -0.349007 0 -0.00918919 -0.339764 0 
-0.0429031 -0.325185 0 0.0432799 -0.339557 0 0.0296913 -0.305515 0 