# vtk DataFile Version 4.0
vtk output
ASCII
DATASET POLYDATA
FIELD FieldData 4
domain 1 3 string
domain_min:-20|-15
domain_max:20|15
cell_size:0.05

variables 1 2 string
dt:0.000372678
T:1.95198

constants 1 10 string
xsize:2
ysize:1
csize:0.05
dx:0.0238095
h:0.025
rho0:1000
mass:0.566894
g:1|0
c:13.4164
CFL:0.2

functions 1 8 string
time:T=(T+dt)
continuity:rho_dot=((-(rho*sph_D00(v,mass,rho,Wp52220)))+(((0.1*c)*h)*sph_L00(rho,mass,rho,Wp52220)))
irho:rho=(rho+int1((rho_dot,dt))
EOS:p=(((c^2)*(rho-rho0))+10000)
euler:a=if((gid,(0*v),(((-((1/rho)*sph_G11(p,mass,rho,Wp52220)))+(0.01*sph_L00(v,mass,rho,Wp52220)))+g))
vel:v=(v+int1((a,dt))
pos:r=(r+int1((v,dt))
new_dt:dt=(CFL*min((sqrt(((h/fmax(magnitude((a)))),(h/c)))

POINTS 2798 float
-0.5125 -0.4875 0 -0.5125 -0.4625 0 -0.5375 -0.4875 0 
-0.5375 -0.4625 0 -0.487805 -0.4875 0 -0.487805 -0.4625 0 
-0.463415 -0.4875 0 -0.463415 -0.4625 0 -0.414634 -0.4875 0 
-0.414634 -0.4625 0 -0.439024 -0.4625 0 -0.439024 -0.4875 0 
-0.365854 -0.4625 0 -0.365854 -0.4875 0 -0.390244 -0.4875 0 
-0.390244 -0.4625 0 -0.317073 -0.4625 0 -0.341463 -0.4625 0 
-0.317073 -0.4875 0 -0.341463 -0.4875 0 -0.292683 -0.4875 0 
-0.268293 -0.4625 0 -0.292683 -0.4625 0 -0.268293 -0.4875 0 
-0.243902 -0.4875 0 -0.243902 -0.4625 0 -0.219512 -0.4625 0 
-0.219512 -0.4875 0 -0.195122 -0.4875 0 -0.170732 -0.4625 0 
-0.195122 -0.4625 0 -0.170732 -0.4875 0 -0.146341 -0.4875 0 
-0.121951 -0.4625 0 -0.121951 -0.4875 0 -0.146341 -0.4625 0 
-0.0731707 -0.4875 0 -0.097561 -0.4625 0 -0.0731707 -0.4625 0 
-0.097561 -0.4875 0 -1.86265e-08 -0.4875 0 -0.0487805 -0.4875 0 
-0.0487805 -0.4625 0 -0.0243903 -0.4875 0 -0.0243903 -0.4625 0 
-1.86265e-08 -0.4625 0 0.0487805 -0.4625 0 0.0487805 -0.4875 0 
0.0243902 -0.4875 0 0.0243902 -0.4625 0 0.0731707 -0.4625 0 
0.097561 -0.4625 0 0.0731707 -0.4875 0 0.097561 -0.4875 0 
0.121951 -0.4875 0 0.121951 -0.4625 0 0.146341 -0.4625 0 
0.146341 -0.4875 0 0.170732 -0.4625 0 0.195122 -0.4625 0 
0.170732 -0.4875 0 0.195122 -0.4875 0 0.243902 -0.4875 0 
0.219512 -0.4875 0 0.243902 -0.4625 0 0.219512 -0.4625 0 
0.268293 -0.4625 0 0.292683 -0.4875 0 0.268293 -0.4875 0 
0.292683 -0.4625 0 0.341463 -0.4625 0 0.317073 -0.4875 0 
0.317073 -0.4625 0 0.341463 -0.4875 0 0.365854 -0.4625 0 
0.390244 -0.4875 0 0.390244 -0.4625 0 0.365854 -0.4875 0 
0.414634 -0.4875 0 0.439024 -0.4875 0 0.414634 -0.4625 0 
0.439024 -0.4625 0 0.487805 -0.4625 0 0.463415 -0.4625 0 
0.463415 -0.4875 0 0.487805 -0.4875 0 0.5375 -0.4625 0 
0.5125 -0.4875 0 0.5375 -0.4875 0 0.5125 -0.4625 0 
-0.5375 -0.4125 0 -0.5125 -0.4125 0 -0.5125 -0.4375 0 
-0.5375 -0.4375 0 -0.487955 -0.437019 0 -0.464117 -0.437367 0 
-0.465392 -0.411388 0 -0.488416 -0.410909 0 -0.415688 -0.411458 0 
-0.439251 -0.407685 0 -0.442355 -0.433622 0 -0.420554 -0.437377 0 
-0.371756 -0.438822 0 -0.389384 -0.414336 0 -0.396794 -0.436899 0 
-0.358546 -0.419625 0 -0.318701 -0.436565 0 -0.309712 -0.40988 0 
-0.332768 -0.412427 0 -0.342907 -0.438827 0 -0.29563 -0.437224 0 
-0.25033 -0.43715 0 -0.286317 -0.411515 0 -0.272475 -0.43595 0 
-0.26474 -0.406741 0 -0.24234 -0.413662 0 -0.201033 -0.436593 0 
-0.225164 -0.438518 0 -0.218703 -0.413167 0 -0.196586 -0.40867 0 
-0.173656 -0.410943 0 -0.155006 -0.437583 0 -0.17861 -0.4365 0 
-0.149871 -0.412545 0 -0.13105 -0.43775 0 -0.109128 -0.434223 0 
-0.126467 -0.4105 0 -0.104767 -0.405482 0 -0.0874474 -0.437589 0 
-0.0599942 -0.408754 0 -0.0824027 -0.412691 0 -0.0636442 -0.437101 0 
-0.019888 -0.43853 0 -0.0369023 -0.40825 0 -0.0141256 -0.412883 0 
-0.0422456 -0.434569 0 0.00285916 -0.434643 0 0.025741 -0.438296 0 
0.0208022 -0.413207 0 0.0498706 -0.437186 0 0.0449134 -0.412178 0 
0.091974 -0.412277 0 0.0966802 -0.437584 0 0.0684091 -0.410725 0 
0.0730629 -0.436936 0 0.140875 -0.411047 0 0.121062 -0.437625 0 
0.116263 -0.41337 0 0.144616 -0.436993 0 0.164063 -0.411903 0 
0.193015 -0.438386 0 0.19008 -0.415158 0 0.168211 -0.437188 0 
0.243754 -0.437331 0 0.216325 -0.415306 0 0.243473 -0.414172 0 
0.218851 -0.438446 0 0.293415 -0.438323 0 0.273661 -0.41595 0 
0.268157 -0.437879 0 0.289772 -0.400361 0 0.342489 -0.434704 0 
0.326638 -0.405325 0 0.307068 -0.418509 0 0.320688 -0.438506 0 
0.349051 -0.412194 0 0.382231 -0.424698 0 0.398955 -0.44068 0 
0.371656 -0.40395 0 0.398961 -0.401894 0 0.365608 -0.439478 0 
0.413199 -0.419944 0 0.428256 -0.438902 0 0.444741 -0.417616 0 
0.430304 -0.401019 0 0.471352 -0.422955 0 0.488296 -0.439349 0 
0.456053 -0.440558 0 0.490267 -0.409564 0 0.5125 -0.4375 0 
0.5375 -0.4125 0 0.5375 -0.4375 0 0.5125 -0.4125 0 
-0.5375 -0.3625 0 -0.5125 -0.3875 0 -0.5125 -0.3625 0 
-0.5375 -0.3875 0 -0.45533 -0.35569 0 -0.460091 -0.38885 0 
-0.489198 -0.38502 0 -0.475956 -0.367682 0 -0.439952 -0.37751 0 
-0.414629 -0.360938 0 -0.418705 -0.386038 0 -0.352023 -0.358138 0 
-0.394681 -0.390209 0 -0.390058 -0.366075 0 -0.366689 -0.375303 0 
-0.368571 -0.398744 0 -0.323452 -0.350062 0 -0.330795 -0.372563 0 
-0.300158 -0.362157 0 -0.342786 -0.391855 0 -0.310727 -0.385788 0 
-0.285646 -0.385309 0 -0.251151 -0.35309 0 -0.267153 -0.372646 0 
-0.203506 -0.358551 0 -0.202119 -0.382626 0 -0.230369 -0.363481 0 
-0.248764 -0.386333 0 -0.225169 -0.387864 0 -0.177454 -0.361075 0 
-0.153201 -0.386941 0 -0.17752 -0.385214 0 -0.152048 -0.362193 0 
-0.11049 -0.373763 0 -0.129557 -0.385123 0 -0.129996 -0.355606 0 
-0.0898664 -0.384787 0 -0.0921843 -0.355325 0 -0.0668061 -0.384159 0 
-0.0695299 -0.359367 0 -0.0225881 -0.351215 0 -0.0445903 -0.358229 0 
-0.0420853 -0.382036 0 -0.00465771 -0.366507 0 -0.0195709 -0.384058 0 
0.0452228 -0.36458 0 0.0229631 -0.354375 0 0.0388369 -0.388994 0 
0.0172077 -0.379065 0 0.00352533 -0.398445 0 0.0879497 -0.386632 0 
0.0950633 -0.36239 0 0.0710497 -0.359523 0 0.0642185 -0.384995 0 
0.136926 -0.387683 0 0.139287 -0.352931 0 0.112257 -0.388446 0 
0.119461 -0.364136 0 0.180021 -0.36541 0 0.171034 -0.390035 0 
0.153913 -0.373741 0 0.196153 -0.392086 0 0.223035 -0.355662 0 
0.205942 -0.371216 0 0.237934 -0.37666 0 0.223337 -0.393572 0 
0.291989 -0.367097 0 0.25591 -0.395994 0 0.25593 -0.361332 0 
0.272873 -0.380376 0 0.347543 -0.386039 0 0.328375 -0.373121 0 
0.312531 -0.354158 0 0.309051 -0.38657 0 0.37342 -0.38049 0 
0.352664 -0.360407 0 0.377863 -0.356943 0 0.402965 -0.35619 0 
0.429534 -0.358466 0 0.400044 -0.379793 0 0.426049 -0.380487 0 
0.485754 -0.386043 0 0.48545 -0.365386 0 0.462342 -0.397916 0 
0.460989 -0.357956 0 0.453155 -0.378543 0 0.5125 -0.3625 0 
0.5375 -0.3625 0 0.5125 -0.3875 0 0.5375 -0.3875 0 
-0.5375 -0.3375 0 -0.5125 -0.3125 0 -0.5125 -0.3375 0 
-0.5375 -0.3125 0 -0.450417 -0.322148 0 -0.490836 -0.349402 0 
-0.464167 -0.30137 0 -0.469691 -0.33405 0 -0.488364 -0.320019 0 
-0.402908 -0.338701 0 -0.434495 -0.301928 0 -0.401709 -0.311478 0 
-0.424017 -0.325014 0 -0.434542 -0.347275 0 -0.35471 -0.312037 0 
-0.379557 -0.320865 0 -0.352169 -0.335504 0 -0.377675 -0.345017 0 
-0.328482 -0.326585 0 -0.30184 -0.334644 0 -0.321237 -0.306119 0 
-0.279591 -0.34977 0 -0.267905 -0.329566 0 -0.292957 -0.315194 0 
-0.269744 -0.305037 0 -0.206191 -0.321334 0 -0.243978 -0.327827 0 
-0.227796 -0.309495 0 -0.221583 -0.340459 0 -0.176044 -0.314082 0 
-0.188517 -0.33727 0 -0.162876 -0.337874 0 -0.152836 -0.30888 0 
-0.110678 -0.341199 0 -0.140224 -0.331521 0 -0.120759 -0.317106 0 
-0.0585304 -0.309693 0 -0.0786273 -0.33194 0 -0.0961334 -0.317732 0 
-0.0550088 -0.334471 0 -0.0309453 -0.328009 0 -0.00805439 -0.320393 0 
-0.0355041 -0.303222 0 0.00313079 -0.340999 0 0.0170173 -0.314575 0 
0.0324361 -0.330932 0 0.0463655 -0.308475 0 0.0847014 -0.336594 0 
0.096758 -0.312957 0 0.0541761 -0.340575 0 0.0674908 -0.319654 0 
0.108857 -0.338526 0 0.117847 -0.305857 0 0.129711 -0.329159 0 
0.194704 -0.346002 0 0.17915 -0.327525 0 0.151564 -0.322521 0 
0.162752 -0.346608 0 0.168415 -0.304447 0 0.199168 -0.312398 0 
0.214567 -0.331565 0 0.235297 -0.317333 0 0.242949 -0.340825 0 
0.284243 -0.313296 0 0.263474 -0.326044 0 0.255247 -0.30199 0 
0.275802 -0.347435 0 0.296574 -0.335009 0 0.33509 -0.34342 0 
0.341622 -0.314596 0 0.306617 -0.303353 0 0.318996 -0.324284 0 
0.359255 -0.334619 0 0.366311 -0.310009 0 0.396028 -0.312594 0 
0.384278 -0.332915 0 0.426847 -0.316155 0 0.412072 -0.3347 0 
0.441141 -0.340073 0 0.451618 -0.315778 0 0.489496 -0.315225 0 
0.489421 -0.34189 0 0.467946 -0.332985 0 0.47181 -0.300215 0 
0.5125 -0.3375 0 0.5125 -0.3125 0 0.5375 -0.3375 0 
0.5375 -0.3125 0 -0.5125 -0.2625 0 -0.5375 -0.2875 0 
-0.5125 -0.2875 0 -0.5375 -0.2625 0 -0.487369 -0.295171 0 
-0.465655 -0.273403 0 -0.488746 -0.26949 0 -0.442332 -0.251705 0 
-0.412366 -0.290476 0 -0.422157 -0.267766 0 -0.403683 -0.252389 0 
-0.444298 -0.280325 0 -0.375988 -0.295798 0 -0.391731 -0.279031 0 
-0.360969 -0.275718 0 -0.38087 -0.256292 0 -0.320279 -0.277761 0 
-0.337123 -0.262778 0 -0.342936 -0.292303 0 -0.260321 -0.267001 0 
-0.300009 -0.291719 0 -0.296956 -0.263206 0 -0.277704 -0.281286 0 
-0.215643 -0.287879 0 -0.249109 -0.297666 0 -0.208906 -0.264463 0 
-0.230909 -0.252225 0 -0.238255 -0.276247 0 -0.172593 -0.253501 0 
-0.185884 -0.27314 0 -0.166989 -0.286825 0 -0.194104 -0.298401 0 
-0.133009 -0.295547 0 -0.100742 -0.252022 0 -0.106545 -0.292289 0 
-0.121619 -0.271638 0 -0.14786 -0.274352 0 -0.149571 -0.25064 0 
-0.0911038 -0.273987 0 -0.0707149 -0.258782 0 -0.0798886 -0.299053 0 
-0.0622129 -0.28181 0 -0.0388825 -0.278918 0 -0.0118306 -0.295743 0 
-0.0163408 -0.270187 0 -0.0459088 -0.254145 0 0.0323053 -0.264138 0 
0.0076348 -0.268548 0 0.0383446 -0.287842 0 0.0131143 -0.292062 0 
0.097889 -0.284224 0 0.0572053 -0.255065 0 0.0614882 -0.279232 0 
0.083209 -0.264931 0 0.0760672 -0.297175 0 0.139722 -0.298128 0 
0.120754 -0.278027 0 0.138227 -0.263105 0 0.107955 -0.255225 0 
0.187261 -0.290307 0 0.15621 -0.28158 0 0.175239 -0.267227 0 
0.196946 -0.257576 0 0.219997 -0.298841 0 0.20868 -0.277831 0 
0.240903 -0.283349 0 0.230226 -0.263027 0 0.277283 -0.289788 0 
0.263498 -0.269972 0 0.287803 -0.261655 0 0.312588 -0.252896 0 
0.302266 -0.2803 0 0.328215 -0.270096 0 0.330134 -0.293185 0 
[...]
POINT_DATA 2798
SCALARS id float
LOOKUP_TABLE default
2620 2621 2600 2601 2640 2641 2642 2643 2646 
2647 2645 2644 2651 2650 2648 2649 2655 2653 
2654 2652 2656 2659 2657 2658 2660 2661 2663 
2662 2664 2667 2665 2666 2668 2671 2670 2669 
2674 2673 2675 2672 2680 2676 2677 2678 2679 
2681 2685 2684 2682 2683 2687 2689 2686 2688 
2690 2691 2693 2692 2695 2697 2694 2696 2700 
2698 2701 2699 2703 2704 2702 2705 2709 2706 
2707 2708 2711 2712 2713 2710 2714 2716 2715 
2717 2721 2719 2718 2720 2743 2722 2742 2723 
2603 2623 2622 2602 1660 1678 1696 1697 1768 
1750 1714 1732 1804 1823 1786 1840 1876 1949 
1913 1858 1894 1930 1967 1912 1985 1966 1984 
1948 2093 2111 2129 2038 2020 2147 2056 2074 
2165 2184 2092 2201 2183 2110 2146 2219 2237 
2128 2164 2182 2218 2200 2291 2329 2254 2310 
2236 2330 2272 2328 2290 2331 2308 2347 2309 
2326 2350 2349 2327 2348 2365 2346 2366 2344 
2368 2364 2345 2363 2383 2380 2370 2371 2362 
2386 2382 2367 2390 2385 2384 2381 2387 2724 
2745 2744 2725 2605 2624 2625 2604 1733 1715 
1661 1679 1787 1824 1805 1895 1841 1842 1859 
1822 1932 1914 1950 1877 1931 1986 2021 2004 
2075 2112 2002 2003 2057 2131 2148 2130 2167 
2203 2166 2185 2202 2221 2220 2239 2276 2257 
2238 2275 2256 2292 2293 2273 2274 2255 2313 
2315 2312 2311 2316 2283 2332 2300 2336 2333 
2317 2334 2248 2335 2353 2352 2284 2351 2318 
2354 2372 2337 1461 2369 2267 340 0 1101 
2213 2090 2231 2388 2355 2389 280 2391 2727 
2747 2726 2746 2606 2627 2626 2607 1769 1662 
1734 1716 1698 1843 1788 1862 1825 1806 1878 
1861 1896 1860 1933 2005 1968 2022 2040 2023 
2041 2076 2058 2077 2039 2113 2094 2149 2150 
2222 2186 2204 2241 2240 2223 2258 2259 2277 
2242 2294 2278 2295 2297 2314 2299 2296 2298 
2282 2265 2247 2266 21 2125 2230 2018 1441 
2142 1362 1875 100 1481 1521 2195 60 1620 
1460 1161 20 1122 1201 1141 1281 1400 1420 
1341 1221 320 2301 2373 1183 2728 2729 2748 
2749 2629 2608 2628 2609 1680 1752 1717 1770 
1844 1807 1881 1751 1879 1880 1897 1916 1951 
1934 1915 2060 1987 1969 2024 2096 2059 2097 
2079 2078 2115 2114 2132 2095 2168 2190 2206 
2205 2169 2133 2207 2191 2224 2208 2225 2260 
2243 2156 2262 2261 2280 2279 2264 2263 2246 
2194 2281 2212 2229 2072 2054 1522 1929 1581 
1911 120 1838 140 1946 1561 1361 40 1600 
1301 1928 1541 1261 1181 1540 1820 1440 1040 
1520 1729 1241 1766 1081 1121 1321 2751 2731 
2730 2750 2631 2610 2611 2630 1735 1753 1771 
1663 1826 1899 1789 1935 1898 1917 1953 1971 
1952 1970 1989 1988 2042 2006 2025 2061 2043 
2063 2080 2062 2099 2081 2098 2116 2064 2187 
2188 2151 2170 2173 2172 2189 2174 2140 2139 
2155 2209 2244 2123 2226 2245 2211 2227 2228 
2193 2124 2159 2036 2177 1821 2176 1893 1839 
2035 1803 1857 2107 1964 1998 1982 1 180 
1731 1926 1910 1963 1892 160 1802 1580 1837 
1784 1713 1749 1001 1873 1300 1767 2753 2752 
2733 2732 2612 2633 2632 2613 1790 1808 1718 
1699 1845 1863 1901 1864 1900 1882 1918 1954 
1936 1972 1990 2007 1955 2044 2026 2008 2027 
1991 2045 2010 2028 2046 2029 1993 2047 2030 
2082 2117 2134 2152 2100 2135 2065 2101 2171 
2136 2120 2154 2153 2192 2210 2157 2138 2089 
2158 2175 2052 2141 2070 2087 2053 2071 2105 
2088 2000 2106 2050 2017 1981 2034 1693 462 
2016 1980 1942 900 762 1979 1909 1560 1853 
1120 542 1712 1891 1819 1818 2735 2755 2754 
2734 2634 2635 2614 2615 1772 1736 1681 1700 
1809 1846 1865 1827 1883 1902 1919 1920 1937 
1938 1885 1973 1903 1956 1957 1974 2009 1924 
1976 1940 1975 1977 1992 1817 1905 1958 1923 
1835 1871 1959 1941 1816 1781 1852 2011 2083 
2012 1711 1994 1925 2048 1995 1798 1705 2137 
1689 2119 2122 2066 2121 1960 2118 2014 2103 
2068 2104 2085 2015 2049 2051 1908 2032 2102 
2033 1856 1890 2069 1785 820 80 1874 1962 
1997 2325 1783 1180 2145 1080 1675 1220 2757 
2737 2756 2736 2616 2636 2637 2617 1664 1665 
1682 1719 1828 1754 1737 1884 1847 1866 1810 
220 1829 1867 1738 1792 1848 1939 1831 1868 
1921 1811 1904 1922 1849 1813 1739 1887 1870 
1722 1869 1758 1794 1741 1832 1886 1776 1850 
1834 1775 1727 1777 1795 1670 1851 1779 1723 
1742 1815 1780 1673 2357 1797 2013 2234 1906 
1745 2084 1708 1746 1944 1799 1814 1978 1762 
1671 1100 2031 1726 1888 2067 1999 2086 2323 
1961 1140 1709 1996 1889 1927 1945 1695 2397 
1710 1728 2306 1676 2288 2738 2759 2739 2758 
2565 2567 2564 2566 2568 2570 2569 2571 2574 
2573 2575 2572 2578 2579 2577 2576 2581 2583 
2580 2582 2587 2586 2584 2585 2589 2588 2590 
2591 2592 2594 2595 2593 2596 2597 2599 2598 
2618 2638 2619 2639 1666 1683 1701 1062 1668 
1791 1720 1773 1401 1702 1755 1601 1667 1684 
1222 2160 1703 1262 861 1685 1830 1669 682 
402 1812 2338 1774 1793 260 1721 2392 980 
1686 1757 1756 2374 2250 1704 843 2356 2143 
404 2215 1142 1740 1282 681 2320 2232 2251 
1760 940 2303 1523 1543 1283 2214 1778 1674 
2361 1691 1744 1796 2359 1759 1833 2376 2252 
1943 2198 2375 1707 1725 2377 1724 1763 800 
2271 2740 2760 2761 2741 2762 2763 2764 2765 
2769 2766 2768 2767 2771 2770 2772 2773 2776 
2777 2774 2775 2780 2779 2778 2781 2782 2784 
2783 2785 2788 2789 2786 2787 2790 2793 2792 
2791 2797 2794 2796 2795 680 1500 780 1801 
1730 421 2289 1836 2342 1380 2217 1765 1800 
720 223 460 1748 2091 1200 482 1747 881 
1041 1872 261 1242 802 1320 1260 1907 1764 
263 862 822 1692 1782 1854 921 1643 541 
1102 941 981 363 560 1202 221 620 1021 
2285 1694 1340 101 362 701 1677 2319 2178 
422 1240 423 381 521 501 600 124 641 
2181 442 721 920 264 901 2249 240 1000 
722 783 1061 463 742 801 323 403 760 
343 383 1182 382 703 903 883 2126 962 
1322 1342 1502 1381 1023 723 1402 1947 804 
1687 1043 1184 1243 961 1621 1022 803 2358 
1203 2216 1003 2343 1123 2396 1582 2179 41 
601 1303 2394 1761 640 1223 1743 461 2019 
1542 1688 1672 161 806 2287 1020 2270 2339 
2199 2341 761 2360 2304 163 2180 2037 2307 
1855 2321 1480 2055 1690 2378 1060 162 520 
341 2109 2197 1143 1064 1045 200 1983 1564 
964 1602 1706 1383 1264 141 660 1363 1224 
143 81 1065 42 360 61 2268 2324 480 
1344 1443 2162 1404 2340 561 83 1385 1563 
1364 182 22 860 281 420 2269 3 1423 
1384 1360 2127 2379 1345 2322 1280 2001 2286 
1160 481 104 700 540 1604 441 43 122 
380 1605 123 84 4 302 1603 1585 241 
321 62 1565 1525 1504 105 1505 262 144 
740 401 361 282 301 6 224 242 580 
621 283 222 27 85 184 304 203 661 
880 344 781 960 245 522 782 364 1421 
841 582 284 342 2302 305 922 741 602 
583 923 942 1082 563 622 823 821 662 
763 643 201 1162 744 1382 2305 1063 1044 
181 1204 864 1103 983 2235 963 2161 902 
1042 884 1185 825 844 2395 2253 2393 840 
2163 1144 786 2196 300 1483 2233 2108 1105 
1263 1422 984 766 1124 1004 1302 1145 1544 
725 646 805 746 765 687 745 924 787 
885 1641 905 1106 925 1086 985 1501 1482 
1104 1562 1025 1164 945 887 1463 1442 965 
1125 1244 1225 1085 1087 500 1066 1403 1424 
1503 1343 1462 1366 1006 23 967 1323 1186 
1304 1365 1067 987 1524 1227 1265 121 1207 
400 63 1644 440 82 1187 1622 1965 1642 
1325 103 102 1266 1346 1623 1485 1286 1305 
142 1584 2 1405 1545 1465 1406 1425 1426 
1466 44 5 1624 25 1486 1645 26 45 
24 64 1586 1547 183 1506 244 1567 324 
165 204 66 443 46 166 86 243 322 
225 325 186 285 147 702 205 1002 483 
185 365 502 444 683 581 366 503 562 
405 642 326 385 543 1640 544 664 863 
943 684 663 623 523 1083 603 982 464 
625 743 1163 882 704 764 665 604 566 
842 605 724 546 904 626 705 526 506 
845 1024 785 784 507 467 547 487 686 
606 586 666 607 706 826 865 647 866 
944 867 1084 807 886 906 788 827 767 
728 868 907 848 849 689 986 847 748 
1046 966 888 869 1047 946 1126 1165 926 
1026 1005 1205 947 948 908 927 1007 928 
1226 1088 1027 1245 2073 1206 1284 1285 2144 
1166 1128 1324 1109 1127 1464 1167 1246 1147 
1267 1148 1208 1228 1387 1444 1247 1583 1306 
1484 1347 1386 1367 1445 1446 1368 1307 1546 
1427 1327 1407 1625 1467 1428 1566 1487 1468 
1527 1448 1447 1526 1646 65 1606 1626 1607 
1627 1647 1588 303 164 7 202 146 47 
67 125 87 126 206 286 226 266 167 
424 148 345 187 265 306 384 227 246 
386 346 287 208 209 189 247 228 229 
307 267 484 624 644 504 824 645 524 
485 565 584 425 446 564 347 465 585 
505 545 685 525 486 466 448 447 468 
408 527 567 449 488 508 548 627 587 
568 726 588 608 747 589 667 846 707 
628 668 648 727 629 649 708 688 709 
670 669 768 749 729 808 789 829 828 
769 850 809 830 889 851 890 909 870 
891 968 988 910 949 1068 1146 1107 1028 
989 1089 1108 1008 1049 1029 1069 1048 1090 
1110 1050 1129 1130 1070 1091 1209 1111 1188 
1149 1168 1229 1169 1287 1189 1248 1326 1268 
1210 1308 1288 1328 1388 1349 1348 1309 1329 
1408 1409 1369 1429 1449 1488 1507 1469 1587 
1548 1528 1508 1509 1529 1568 1549 1510 1569 
1628 1608 1648 1589 1609 8 48 106 1629 
145 28 68 29 49 88 127 69 107 
207 128 89 168 108 129 150 149 188 
248 190 170 169 327 249 269 268 406 
289 288 250 329 308 309 328 445 348 
407 367 426 387 388 427 368 410 429 
390 409 428 450 430 411 469 490 489 
470 509 529 549 511 510 528 569 550 
530 570 551 571 609 590 630 610 611 
591 631 671 651 650 690 691 710 711 
731 730 751 750 771 770 791 790 871 
831 811 810 892 929 872 852 930 911 
931 912 970 950 951 969 1010 1009 991 
990 1031 1011 1032 1030 1012 1071 1072 1051 
1052 1092 1132 1131 1113 1112 1093 1150 1151 
1170 1211 1230 1190 1249 1231 1289 1269 1270 
1250 1290 1311 1291 1310 1330 1331 1350 1351 
1332 1370 1389 1371 1410 1390 1489 1430 1411 
1450 1470 1490 1491 1471 1492 1530 1511 1512 
1531 1550 1551 1571 1570 1590 1649 1591 1610 
1611 1631 1651 9 1650 1630 11 50 31 
10 30 70 90 71 51 130 110 109 
91 111 131 151 132 133 191 172 210 
171 152 231 211 230 270 290 232 251 
291 349 310 271 330 389 350 369 370 
351 372 352 371 431 412 391 392 471 
452 432 451 472 492 491 493 532 531 
512 513 573 553 572 552 612 613 593 
592 652 632 672 653 633 673 692 712 
693 713 732 733 753 752 792 793 773 
772 812 832 833 813 873 874 854 853 
914 893 913 894 933 952 953 932 972 
993 973 971 992 1054 1013 1034 1033 1053 
1073 1074 1115 1133 1134 1114 1094 1153 1172 
1171 1152 1191 1192 1213 1212 1233 1253 1232 
1251 1252 1272 1292 1271 1293 1333 1313 1353 
1354 1312 1352 1373 1392 1391 1372 1413 1431 
1432 1412 1451 1472 1473 1452 1493 1513 1553 
1533 1552 1572 1532 1573 1612 1592 1593 1613 
1632 1633 12 1653 32 1652 13 33 53 
72 52 112 73 93 92 154 134 113 
155 173 174 153 193 213 212 192 234 
253 252 233 273 272 292 293 311 312 
331 332 414 373 393 435 454 455 434 
413 433 475 453 474 495 473 494 515 
514 533 534 555 575 595 574 554 614 
594 635 615 654 655 695 675 634 714 
674 715 735 694 755 754 775 734 795 
815 794 774 834 814 835 896 916 935 
875 855 895 975 955 915 995 954 934 
1015 1035 1075 974 994 1055 1014 1136 1095 
1155 1175 1135 1154 1174 1195 1194 1193 1214 
1173 1235 1275 1255 1254 1234 1274 1315 1273 
1295 1335 1294 1314 1355 1375 1395 1334 1394 
1415 1374 1435 1414 1393 1475 1434 1455 1433 
1453 1474 1495 1454 1555 1515 1514 1494 1535 
1534 1574 1554 1595 1575 1594 1615 1635 15 
1655 1634 1614 55 14 35 1654 95 34 
75 54 74 94 114 156 115 176 196 
135 175 296 195 276 194 255 214 275 
295 235 274 314 315 254 354 313 333 
294 395 415 394 353 737 476 717 496 
516 757 777 536 535 817 556 797 576 
857 596 837 616 877 897 636 937 656 
696 917 676 957 736 716 977 997 756 
776 1017 1037 816 1057 796 1077 836 856 
1097 1117 1137 936 876 1177 976 956 1197 
1217 996 1016 1237 1257 1036 1076 1056 1297 
1277 1317 1096 1116 1377 1357 1157 1156 1337 
1196 1417 1397 1176 1457 1236 1437 1215 1216 
1477 1497 1256 1276 1316 1296 1517 1537 1356 
1336 1557 1577 1376 1396 1597 1617 1657 1637 
1436 1416 37 1476 17 1456 1496 1516 57 
77 117 1556 97 1536 137 157 1576 1596 
1616 1636 197 177 237 16 1656 217 297 
277 36 56 317 96 337 76 116 136 
397 357 417 437 257 216 457 236 376 
256 377 477 497 336 215 537 517 356 
316 355 557 577 335 396 617 597 334 
436 657 374 416 375 637 697 677 456 
979 1358 999 1338 1318 1378 1398 1039 1019 
1438 1059 1079 1418 1478 1458 1099 1119 1498 
1139 1159 1518 1179 1199 1538 1219 1558 1578 
1259 1618 1598 1239 1279 1638 1658 1299 18 
1319 38 1339 1359 58 1399 78 98 1419 
1379 118 1459 138 1439 158 198 1499 1479 
178 1539 218 1519 238 1559 1579 258 278 
318 1599 1619 1639 298 1659 19 338 358 
59 39 398 378 99 418 79 438 458 
119 139 478 159 518 179 498 219 538 
558 199 598 239 578 279 259 658 618 
299 319 638 698 339 359 678 718 738 
379 399 439 778 758 419 479 798 818 
459 858 499 519 838 539 559 878 898 
599 918 938 579 958 639 978 619 998 
1018 679 659 699 1058 1038 719 1078 739 
1098 759 799 1118 1138 779 819 1158 1178 
839 1198 859 1218 1238 899 919 879 1258 
1298 959 1278 939 2399 2401 2400 2398 2405 
2403 2402 2404 2408 2409 2407 2406 2411 2413 
2412 2410 2417 2415 2414 2416 2420 2418 2419 
2421 2422 2426 2423 2425 2427 2424 2429 2430 
2431 2428 2435 2434 2433 2432 2437 2436 2438 
2439 2441 2443 2440 2442 2447 2446 2444 2445 
2450 2448 2449 2451 2455 2453 2452 2454 2457 
2459 2458 2456 2461 2462 2460 2463 2464 2465 
2467 2466 2471 2468 2469 2470 2475 2474 2473 
2472 2480 2479 2481 2478 2476 2477 2482 2483 
2484 2485 2487 2486 2488 2489 2493 2492 2490 
2491 2497 2496 2495 2494 2498 2501 2500 2499 
2504 2502 2505 2503 2507 2506 2508 2509 2511 
2512 2513 2510 2517 2515 2514 2516 2519 2520 
2518 2521 2524 2525 2522 2523 2527 2526 2528 
2529 2533 2532 2530 2531 2534 2535 2536 2537 
2538 2539 2540 2542 2541 2543 2547 2546 2544 
2545 2548 2549 2550 2551 2553 2554 2555 2552 
2558 2556 2557 2559 2560 2561 2562 2563 
FIELD FieldData 7
r 3 2798 float
-0.5125 -0.4875 0 -0.5125 -0.4625 0 -0.5375 -0.4875 0 
-0.5375 -0.4625 0 -0.487805 -0.4875 0 -0.487805 -0.4625 0 
-0.463415 -0.4875 0 -0.463415 -0.4625 0 -0.414634 -0.4875 0 
-0.414634 -0.4625 0 -0.439024 -0.4625 0 -0.439024 -0.4875 0 
-0.365854 -0.4625 0 -0.365854 -0.4875 0 -0.390244 -0.4875 0 
-0.390244 -0.4625 0 -0.317073 -0.4625 0 -0.341463 -0.4625 0 
-0.317073 -0.4875 0 -0.341463 -0.4875 0 -0.292683 -0.4875 0 
-0.268293 -0.4625 0 -0.292683 -0.4625 0 -0.268293 -0.4875 0 
-0.243902 -0.4875 0 -0.243902 -0.4625 0 -0.219512 -0.4625 0 
-0.219512 -0.4875 0 -0.195122 -0.4875 0 -0.170732 -0.4625 0 
-0.195122 -0.4625 0 -0.170732 -0.4875 0 -0.146341 -0.4875 0 
-0.121951 -0.4625 0 -0.121951 -0.4875 0 -0.146341 -0.4625 0 
-0.0731707 -0.4875 0 -0.097561 -0.4625 0 -0.0731707 -0.4625 0 
-0.097561 -0.4875 0 -1.86265e-08 -0.4875 0 -0.0487805 -0.4875 0 
-0.0487805 -0.4625 0 -0.0243903 -0.4875 0 -0.0243903 -0.4625 0 
-1.86265e-08 -0.4625 0 0.0487805 -0.4625 0 0.0487805 -0.4875 0 
0.0243902 -0.4875 0 0.0243902 -0.4625 0 0.0731707 -0.4625 0 
0.097561 -0.4625 0 0.0731707 -0.4875 0 0.097561 -0.4875 0 
0.121951 -0.4875 0 0.121951 -0.4625 0 0.146341 -0.4625 0 
0.146341 -0.4875 0 0.170732 -0.4625 0 0.195122 -0.4625 0 
0.170732 -0.4875 0 0.195122 -0.4875 0 0.243902 -0.4875 0 
0.219512 -0.4875 0 0.243902 -0.4625 0 0.219512 -0.4625 0 
0.268293 -0.4625 0 0.292683 -0.4875 0 0.268293 -0.4875 0 
0.292683 -0.4625 0 0.341463 -0.4625 0 0.317073 -0.4875 0 
0.317073 -0.4625 0 0.341463 -0.4875 0 0.365854 -0.4625 0 
0.390244 -0.4875 0 0.390244 -0.4625 0 0.365854 -0.4875 0 
0.414634 -0.4875 0 0.439024 -0.4875 0 0.414634 -0.4625 0 
0.439024 -0.4625 0 0.487805 -0.4625 0 0.463415 -0.4625 0 
0.463415 -0.4875 0 0.487805 -0.4875 0 0.5375 -0.4625 0 
0.5125 -0.4875 0 0.5375 -0.4875 0 0.5125 -0.4625 0 
-0.5375 -0.4125 0 -0.5125 -0.4125 0 -0.5125 -0.4375 0 
-0.5375 -0.4375 0 -0.487955 -0.437019 0 -0.464117 -0.437367 0 
-0.465392 -0.411388 0 -0.488416 -0.410909 0 -0.415688 -0.411458 0 
-0.439251 -0.407685 0 -0.442355 -0.433622 0 -0.420554 -0.437377 0 
-0.371756 -0.438822 0 -0.389384 -0.414336 0 -0.396794 -0.436899 0 
-0.358546 -0.419625 0 -0.318701 -0.436565 0 -0.309712 -0.40988 0 
-0.332768 -0.412427 0 -0.342907 -0.438827 0 -0.29563 -0.437224 0 
-0.25033 -0.43715 0 -0.286317 -0.411515 0 -0.272475 -0.43595 0 
-0.26474 -0.406741 0 -0.24234 -0.413662 0 -0.201033 -0.436593 0 
-0.225164 -0.438518 0 -0.218703 -0.413167 0 -0.196586 -0.40867 0 
-0.173656 -0.410943 0 -0.155006 -0.437583 0 -0.17861 -0.4365 0 
-0.149871 -0.412545 0 -0.13105 -0.43775 0 -0.109128 -0.434223 0 
-0.126467 -0.4105 0 -0.104767 -0.405482 0 -0.0874474 -0.437589 0 
-0.0599942 -0.408754 0 -0.0824027 -0.412691 0 -0.0636442 -0.437101 0 
-0.019888 -0.43853 0 -0.0369023 -0.40825 0 -0.0141256 -0.412883 0 
-0.0422456 -0.434569 0 0.00285916 -0.434643 0 0.025741 -0.438296 0 
0.0208022 -0.413207 0 0.0498706 -0.437186 0 0.0449134 -0.412178 0 
0.091974 -0.412277 0 0.0966802 -0.437584 0 0.0684091 -0.410725 0 
0.0730629 -0.436936 0 0.140875 -0.411047 0 0.121062 -0.437625 0 
0.116263 -0.41337 0 0.144616 -0.436993 0 0.164063 -0.411903 0 
0.193015 -0.438386 0 0.19008 -0.415158 0 0.168211 -0.437188 0 
0.243754 -0.437331 0 0.216325 -0.415306 0 0.243473 -0.414172 0 
0.218851 -0.438446 0 0.293415 -0.438323 0 0.273661 -0.41595 0 
0.268157 -0.437879 0 0.289772 -0.400361 0 0.342489 -0.434704 0 
0.326638 -0.405325 0 0.307068 -0.418509 0 0.320688 -0.438506 0 
0.349051 -0.412194 0 0.382231 -0.424698 0 0.398955 -0.44068 0 
0.371656 -0.40395 0 0.398961 -0.401894 0 0.365608 -0.439478 0 
0.413199 -0.419944 0 0.428256 -0.438902 0 0.444741 -0.417616 0 
0.430304 -0.401019 0 0.471352 -0.422955 0 0.488296 -0.439349 0 
0.456053 -0.440558 0 0.490267 -0.409564 0 0.5125 -0.4375 0 
0.5375 -0.4125 0 0.5375 -0.4375 0 0.5125 -0.4125 0 
-0.5375 -0.3625 0 -0.5125 -0.3875 0 -0.5125 -0.3625 0 
-0.5375 -0.3875 0 -0.45533 -0.35569 0 -0.460091 -0.38885 0 
-0.489198 -0.38502 0 -0.475956 -0.367682 0 -0.439952 -0.37751 0 
-0.414629 -0.360938 0 -0.418705 -0.386038 0 -0.352023 -0.358138 0 
-0.394681 -0.390209 0 -0.390058 -0.366075 0 -0.366689 -0.375303 0 
-0.368571 -0.398744 0 -0.323452 -0.350062 0 -0.330795 -0.372563 0 
-0.300158 -0.362157 0 -0.342786 -0.391855 0 -0.310727 -0.385788 0 
-0.285646 -0.385309 0 -0.251151 -0.35309 0 -0.267153 -0.372646 0 
-0.203506 -0.358551 0 -0.202119 -0.382626 0 -0.230369 -0.363481 0 
-0.248764 -0.386333 0 -0.225169 -0.387864 0 -0.177454 -0.361075 0 
-0.153201 -0.386941 0 -0.17752 -0.385214 0 -0.152048 -0.362193 0 
-0.11049 -0.373763 0 -0.129557 -0.385123 0 -0.129996 -0.355606 0 
-0.0898664 -0.384787 0 -0.0921843 -0.355325 0 -0.0668061 -0.384159 0 
-0.0695299 -0.359367 0 -0.0225881 -0.351215 0 -0.0445903 -0.358229 0 
-0.0420853 -0.382036 0 -0.00465771 -0.366507 0 -0.0195709 -0.384058 0 
0.0452228 -0.36458 0 0.0229631 -0.354375 0 0.0388369 -0.388994 0 
0.0172077 -0.379065 0 0.00352533 -0.398445 0 0.0879497 -0.386632 0 
0.0950633 -0.36239 0 0.0710497 -0.359523 0 0.0642185 -0.384995 0 
0.136926 -0.387683 0 0.139287 -0.352931 0 0.112257 -0.388446 0 
0.119461 -0.364136 0 0.180021 -0.36541 0 0.171034 -0.390035 0 
0.153913 -0.373741 0 0.196153 -0.392086 0 0.223035 -0.355662 0 
0.205942 -0.371216 0 0.237934 -0.37666 0 0.223337 -0.393572 0 
0.291989 -0.367097 0 0.25591 -0.395994 0 0.25593 -0.361332 0 
0.272873 -0.380376 0 0.347543 -0.386039 0 0.328375 -0.373121 0 
0.312531 -0.354158 0 0.309051 -0.38657 0 0.37342 -0.38049 0 
0.352664 -0.360407 0 0.377863 -0.356943 0 0.402965 -0.35619 0 
0.429534 -0.358466 0 0.400044 -0.379793 0 0.426049 -0.380487 0 
0.485754 -0.386043 0 0.48545 -0.365386 0 0.462342 -0.397916 0 
0.460989 -0.357956 0 0.453155 -0.378543 0 0.5125 -0.3625 0 
0.5375 -0.3625 0 0.5125 -0.3875 0 0.5375 -0.3875 0 
-0.5375 -0.3375 0 -0.5125 -0.3125 0 -0.5125 -0.3375 0 
-0.5375 -0.3125 0 -0.450417 -0.322148 0 -0.490836 -0.349402 0 
-0.464167 -0.30137 0 -0.469691 -0.33405 0 -0.488364 -0.320019 0 
-0.402908 -0.338701 0 -0.434495 -0.301928 0 -0.401709 -0.311478 0 
-0.424017 -0.325014 0 -0.434542 -0.347275 0 -0.35471 -0.312037 0 
-0.379557 -0.320865 0 -0.352169 -0.335504 0 -0.377675 -0.345017 0 
-0.328482 -0.326585 0 -0.30184 -0.334644 0 -0.321237 -0.306119 0 
-0.279591 -0.34977 0 -0.267905 -0.329566 0 -0.292957 -0.315194 0 
-0.269744 -0.305037 0 -0.206191 -0.321334 0 -0.243978 -0.327827 0 
-0.227796 -0.309495 0 -0.221583 -0.340459 0 -0.176044 -0.314082 0 
-0.188517 -0.33727 0 -0.162876 -0.337874 0 -0.152836 -0.30888 0 
-0.110678 -0.341199 0 -0.140224 -0.331521 0 -0.120759 -0.317106 0 
-0.0585304 -0.309693 0 -0.0786273 -0.33194 0 -0.0961334 -0.317732 0 
-0.0550088 -0.334471 0 -0.0309453 -0.328009 0 -0.00805439 -0.320393 0 
-0.0355041 -0.303222 0 0.00313079 -0.340999 0 0.0170173 -0.314575 0 