# vtk DataFile Version 4.0
vtk output
ASCII
DATASET POLYDATA
FIELD FieldData 4
domain 1 3 string
domain_min:-20|-15
domain_max:20|15
cell_size:0.05

variables 1 2 string
dt:0.000372678
T:0.322004

constants 1 10 string
xsize:2
ysize:1
csize:0.05
dx:0.0238095
h:0.025
rho0:1000
mass:0.566894
g:1|0
c:13.4164
CFL:0.2

functions 1 8 string
time:T=(T+dt)
continuity:rho_dot=((-(rho*sph_D00(v,mass,rho,Wp52220)))+(((0.1*c)*h)*sph_L00(rho,mass,rho,Wp52220)))
irho:rho=(rho+int1((rho_dot,dt))
EOS:p=(((c^2)*(rho-rho0))+10000)
euler:a=if((gid,(0*v),(((-((1/rho)*sph_G11(p,mass,rho,Wp52220)))+(0.01*sph_L00(v,mass,rho,Wp52220)))+g))
vel:v=(v+int1((a,dt))
pos:r=(r+int1((v,dt))
new_dt:dt=(CFL*min((sqrt(((h/fmax(magnitude((a)))),(h/c)))

POINTS 2798 float
-0.5375 -0.4875 0 -0.5125 -0.4625 0 -0.5125 -0.4875 0 
-0.5375 -0.4625 0 -0.487805 -0.4875 0 -0.463415 -0.4625 0 
-0.487805 -0.4625 0 -0.463415 -0.4875 0 -0.414634 -0.4875 0 
-0.439024 -0.4625 0 -0.439024 -0.4875 0 -0.414634 -0.4625 0 
-0.390244 -0.4625 0 -0.390244 -0.4875 0 -0.365854 -0.4875 0 
-0.365854 -0.4625 0 -0.317073 -0.4625 0 -0.317073 -0.4875 0 
-0.341463 -0.4625 0 -0.341463 -0.4875 0 -0.268293 -0.4875 0 
-0.268293 -0.4625 0 -0.292683 -0.4875 0 -0.292683 -0.4625 0 
-0.219512 -0.4625 0 -0.219512 -0.4875 0 -0.243902 -0.4875 0 
-0.243902 -0.4625 0 -0.195122 -0.4625 0 -0.170732 -0.4875 0 
-0.170732 -0.4625 0 -0.195122 -0.4875 0 -0.121951 -0.4625 0 
-0.121951 -0.4875 0 -0.146341 -0.4625 0 -0.146341 -0.4875 0 
-0.0731707 -0.4625 0 -0.097561 -0.4875 0 -0.0731707 -0.4875 0 
-0.097561 -0.4625 0 -0.0243903 -0.4875 0 -0.0487805 -0.4875 0 
-0.0243903 -0.4625 0 -0.0487805 -0.4625 0 -1.86265e-08 -0.4875 0 
-1.86265e-08 -0.4625 0 0.0243902 -0.4875 0 0.0487805 -0.4875 0 
0.0243902 -0.4625 0 0.0487805 -0.4625 0 0.0731707 -0.4875 0 
0.0731707 -0.4625 0 0.097561 -0.4875 0 0.097561 -0.4625 0 
0.146341 -0.4625 0 0.121951 -0.4625 0 0.146341 -0.4875 0 
0.121951 -0.4875 0 0.170732 -0.4875 0 0.170732 -0.4625 0 
0.195122 -0.4875 0 0.195122 -0.4625 0 0.219512 -0.4875 0 
0.243902 -0.4625 0 0.243902 -0.4875 0 0.219512 -0.4625 0 
0.292683 -0.4625 0 0.268293 -0.4875 0 0.292683 -0.4875 0 
0.268293 -0.4625 0 0.317073 -0.4875 0 0.341463 -0.4875 0 
0.341463 -0.4625 0 0.317073 -0.4625 0 0.365854 -0.4625 0 
0.365854 -0.4875 0 0.390244 -0.4875 0 0.390244 -0.4625 0 
0.414634 -0.4875 0 0.414634 -0.4625 0 0.439024 -0.4875 0 
0.439024 -0.4625 0 0.487805 -0.4625 0 0.487805 -0.4875 0 
0.463415 -0.4625 0 0.463415 -0.4875 0 0.5125 -0.4625 0 
0.5375 -0.4625 0 0.5125 -0.4875 0 0.5375 -0.4875 0 
-0.5375 -0.4125 0 -0.5375 -0.4375 0 -0.5125 -0.4125 0 
-0.5125 -0.4375 0 -0.487944 -0.412151 0 -0.463574 -0.437247 0 
-0.487952 -0.437348 0 -0.463628 -0.411976 0 -0.439399 -0.411963 0 
-0.415041 -0.437307 0 -0.415177 -0.412081 0 -0.439308 -0.437264 0 
-0.366461 -0.412388 0 -0.366336 -0.437405 0 -0.390722 -0.437366 0 
-0.390874 -0.412248 0 -0.317388 -0.437478 0 -0.341886 -0.437452 0 
-0.341934 -0.41253 0 -0.317315 -0.412625 0 -0.267904 -0.412695 0 
-0.292621 -0.412759 0 -0.292838 -0.437535 0 -0.26828 -0.437505 0 
-0.218359 -0.412939 0 -0.243175 -0.41283 0 -0.219104 -0.437597 0 
-0.243726 -0.437559 0 -0.169844 -0.437597 0 -0.16868 -0.412942 0 
-0.194468 -0.437583 0 -0.193511 -0.412913 0 -0.145203 -0.437604 0 
-0.118993 -0.412967 0 -0.120557 -0.437599 0 -0.143839 -0.412972 0 
-0.0959176 -0.437596 0 -0.0941602 -0.412961 0 -0.0712815 -0.437594 0 
-0.0693464 -0.412954 0 -0.0220379 -0.437589 0 -0.0197907 -0.412921 0 
-0.0445543 -0.41294 0 -0.0466527 -0.437591 0 0.0296268 -0.41288 0 
0.00256009 -0.43759 0 0.00493738 -0.412902 0 0.027138 -0.437593 0 
0.0788705 -0.41283 0 0.051692 -0.437597 0 0.07622 -0.437602 0 
0.0542727 -0.412856 0 0.127913 -0.412771 0 0.125191 -0.43761 0 
0.14963 -0.437613 0 0.10072 -0.437606 0 0.103418 -0.412802 0 
0.152354 -0.412738 0 0.176743 -0.412705 0 0.198416 -0.437615 0 
0.174038 -0.437613 0 0.225352 -0.412625 0 0.201077 -0.41267 0 
0.222762 -0.437613 0 0.247071 -0.437605 0 0.249567 -0.412574 0 
0.271347 -0.4376 0 0.273728 -0.412533 0 0.297832 -0.41248 0 
0.295592 -0.437592 0 0.321869 -0.412406 0 0.3198 -0.437572 0 
0.345832 -0.412329 0 0.343967 -0.437555 0 0.392119 -0.437472 0 
0.369708 -0.412205 0 0.368079 -0.43752 0 0.393479 -0.412071 0 
0.440113 -0.437485 0 0.416112 -0.43747 0 0.417187 -0.412043 0 
0.440852 -0.412059 0 0.464544 -0.412213 0 0.488389 -0.412693 0 
0.488371 -0.437816 0 0.464128 -0.43751 0 0.5125 -0.4125 0 
0.5375 -0.4375 0 0.5375 -0.4125 0 0.5125 -0.4375 0 
-0.5125 -0.3875 0 -0.5375 -0.3625 0 -0.5375 -0.3875 0 
-0.5125 -0.3625 0 -0.487956 -0.38694 0 -0.463664 -0.386658 0 
-0.463726 -0.361298 0 -0.487973 -0.361684 0 -0.439472 -0.386628 0 
-0.415464 -0.361516 0 -0.439586 -0.361244 0 -0.415285 -0.386824 0 
-0.390996 -0.387138 0 -0.391209 -0.36203 0 -0.366555 -0.387418 0 
-0.366745 -0.362487 0 -0.342075 -0.36298 0 -0.317223 -0.387899 0 
-0.317242 -0.363275 0 -0.341952 -0.387711 0 -0.292309 -0.363607 0 
-0.2924 -0.388126 0 -0.267358 -0.363465 0 -0.267554 -0.388033 0 
-0.242385 -0.363822 0 -0.217283 -0.364127 0 -0.217715 -0.388466 0 
-0.242688 -0.388268 0 -0.192129 -0.364072 0 -0.192698 -0.388426 0 
-0.167707 -0.388454 0 -0.167014 -0.364082 0 -0.116826 -0.364124 0 
-0.141918 -0.364142 0 -0.142721 -0.388499 0 -0.117731 -0.388489 0 
-0.0667365 -0.364022 0 -0.0678231 -0.388439 0 -0.0917614 -0.364082 0 
-0.092761 -0.388467 0 -0.0180626 -0.388349 0 -0.0417634 -0.363947 0 
-0.0168441 -0.363853 0 -0.042922 -0.3884 0 0.0067448 -0.388292 0 
0.0327993 -0.363621 0 0.00801348 -0.363741 0 0.0314952 -0.38823 0 
0.0821539 -0.363349 0 0.0808131 -0.388085 0 0.0575133 -0.363489 0 
0.0561862 -0.38816 0 0.105375 -0.388005 0 0.12987 -0.387921 0 
0.106718 -0.363203 0 0.131205 -0.363051 0 0.178656 -0.387744 0 
0.154297 -0.387834 0 0.179936 -0.362725 0 0.155612 -0.362891 0 
0.227149 -0.387539 0 0.204177 -0.36255 0 0.20294 -0.387647 0 
0.22834 -0.362369 0 0.276444 -0.362019 0 0.299356 -0.387208 0 
0.252433 -0.362198 0 0.25129 -0.387431 0 0.275363 -0.387334 0 
0.300354 -0.361794 0 0.323263 -0.38705 0 0.347078 -0.386884 0 
0.347888 -0.361285 0 0.324165 -0.361548 0 0.395036 -0.360615 0 
0.371506 -0.360932 0 0.370791 -0.386652 0 0.394403 -0.386414 0 
0.417936 -0.386329 0 0.441732 -0.360226 0 0.441364 -0.38628 0 
0.418465 -0.36041 0 0.48845 -0.387379 0 0.464783 -0.386546 0 
0.488437 -0.361931 0 0.464917 -0.360593 0 0.5375 -0.3875 0 
0.5125 -0.3625 0 0.5375 -0.3625 0 0.5125 -0.3875 0 
-0.5375 -0.3125 0 -0.5125 -0.3375 0 -0.5125 -0.3125 0 
-0.5375 -0.3375 0 -0.487972 -0.3364 0 -0.463735 -0.335902 0 
-0.463712 -0.310489 0 -0.48796 -0.311119 0 -0.439681 -0.310246 0 
-0.415589 -0.33614 0 -0.439633 -0.335795 0 -0.415772 -0.31067 0 
-0.366912 -0.312868 0 -0.366821 -0.337622 0 -0.391552 -0.311892 0 
-0.391353 -0.336932 0 -0.316868 -0.314418 0 -0.341987 -0.313892 0 
-0.342037 -0.338366 0 -0.317066 -0.338776 0 -0.266949 -0.338992 0 
-0.29168 -0.314917 0 -0.266548 -0.314602 0 -0.292005 -0.339205 0 
-0.241318 -0.315367 0 -0.215881 -0.315873 0 -0.241855 -0.339511 0 
-0.216603 -0.339926 0 -0.165184 -0.315611 0 -0.191318 -0.339836 0 
-0.190471 -0.315695 0 -0.166099 -0.33981 0 -0.140906 -0.339881 0 
-0.139917 -0.315714 0 -0.114639 -0.315635 0 -0.115719 -0.339841 0 
-0.0654866 -0.33967 0 -0.0894336 -0.315518 0 -0.0905789 -0.33977 0 
-0.0642831 -0.31538 0 -0.0404596 -0.339544 0 -0.015505 -0.339402 0 
-0.0142026 -0.314977 0 -0.039194 -0.315184 0 0.00938244 -0.339228 0 
0.0107078 -0.31474 0 0.0341904 -0.339038 0 0.0355354 -0.31447 0 
0.0835538 -0.338619 0 0.0602666 -0.314184 0 0.0848998 -0.313878 0 
0.0589142 -0.338835 0 0.109433 -0.313556 0 0.132563 -0.338155 0 
0.108104 -0.338392 0 0.133867 -0.313224 0 0.181212 -0.337656 0 
0.158209 -0.312886 0 0.156931 -0.337909 0 0.182465 -0.312549 0 
0.206639 -0.31221 0 0.229531 -0.337146 0 0.230725 -0.31187 0 
0.20541 -0.337399 0 0.253571 -0.336894 0 0.27856 -0.311098 0 
0.277506 -0.336611 0 0.254704 -0.311512 0 0.302303 -0.310661 0 
0.348693 -0.335581 0 0.301328 -0.336277 0 0.325963 -0.310251 0 
0.349552 -0.309796 0 0.325057 -0.335936 0 0.373061 -0.309262 0 
0.396495 -0.308802 0 0.395721 -0.334729 0 0.372239 -0.335132 0 
0.419752 -0.308124 0 0.419073 -0.334346 0 0.442144 -0.333898 0 
0.442656 -0.307285 0 0.488452 -0.336426 0 0.465303 -0.307845 0 
0.465082 -0.334372 0 0.488482 -0.310849 0 0.5375 -0.3375 0 
0.5125 -0.3125 0 0.5125 -0.3375 0 0.5375 -0.3125 0 
-0.5125 -0.2625 0 -0.5375 -0.2875 0 -0.5125 -0.2875 0 
-0.5375 -0.2625 0 -0.487966 -0.260585 0 -0.463788 -0.259523 0 
-0.463718 -0.28505 0 -0.487956 -0.285853 0 -0.41672 -0.259181 0 
-0.416159 -0.285037 0 -0.440137 -0.258464 0 -0.439835 -0.284511 0 
-0.391978 -0.286909 0 -0.367743 -0.263707 0 -0.392582 -0.261994 0 
-0.367223 -0.288237 0 -0.342175 -0.289554 0 -0.317339 -0.266031 0 
-0.316945 -0.290187 0 -0.342624 -0.265287 0 -0.292036 -0.266531 0 
-0.291675 -0.290706 0 -0.266885 -0.265957 0 -0.266518 -0.290267 0 
-0.241143 -0.291413 0 -0.241341 -0.26768 0 -0.215497 -0.291986 0 
-0.215436 -0.268282 0 -0.189959 -0.291636 0 -0.189755 -0.267653 0 
-0.16441 -0.267289 0 -0.164632 -0.291447 0 -0.139322 -0.291627 0 
-0.11395 -0.29151 0 -0.139079 -0.267626 0 -0.113579 -0.267498 0 
-0.0886787 -0.291311 0 -0.0881901 -0.267137 0 -0.0634932 -0.291152 0 
-0.0629964 -0.26695 0 -0.0132723 -0.290588 0 -0.0378246 -0.266674 0 
-0.0383332 -0.290888 0 -0.0126845 -0.266264 0 0.0365175 -0.289921 0 
0.0371961 -0.265393 0 0.01167 -0.290278 0 0.0123175 -0.265847 0 
0.0858913 -0.289132 0 0.061964 -0.264904 0 0.0612581 -0.289537 0 
0.0866206 -0.264399 0 0.134864 -0.288284 0 0.111181 -0.263884 0 
0.110425 -0.28871 0 0.135651 -0.263368 0 0.183481 -0.287431 0 
0.159217 -0.287858 0 0.184288 -0.262314 0 0.160024 -0.262848 0 
0.207649 -0.286996 0 0.231701 -0.286542 0 0.232435 -0.261161 0 
0.208428 -0.261753 0 0.256321 -0.260539 0 0.255624 -0.286047 0 
0.279419 -0.285514 0 0.280128 -0.259912 0 0.303894 -0.259359 0 
0.303136 -0.284996 0 0.326793 -0.28451 0 0.327623 -0.258833 0 
0.351282 -0.258211 0 0.397296 -0.282771 0 0.373894 -0.283378 0 
[...]
POINT_DATA 2798
SCALARS id float
LOOKUP_TABLE default
2600 2621 2620 2601 2640 2643 2641 2642 2646 
2645 2644 2647 2649 2648 2650 2651 2655 2654 
2653 2652 2658 2659 2656 2657 2663 2662 2660 
2661 2665 2666 2667 2664 2671 2670 2669 2668 
2675 2672 2674 2673 2678 2676 2679 2677 2680 
2681 2682 2684 2683 2685 2686 2687 2688 2689 
2693 2691 2692 2690 2694 2695 2696 2697 2698 
2701 2700 2699 2705 2702 2704 2703 2706 2708 
2709 2707 2711 2710 2712 2713 2714 2715 2716 
2717 2721 2720 2719 2718 2723 2743 2722 2742 
2603 2602 2623 2622 1661 1678 1660 1679 1697 
1714 1715 1696 1751 1750 1732 1733 1786 1768 
1769 1787 1823 1805 1804 1822 1859 1841 1858 
1840 1894 1895 1876 1877 1912 1931 1930 1913 
1948 1949 1966 1967 2002 2003 1985 1984 2039 
2020 2021 2038 2075 2056 2074 2057 2111 2110 
2128 2092 2093 2129 2147 2164 2146 2183 2165 
2182 2200 2201 2218 2219 2237 2236 2255 2254 
2273 2272 2308 2291 2290 2309 2344 2326 2327 
2345 2363 2381 2380 2362 2725 2744 2745 2724 
2624 2605 2604 2625 1662 1680 1681 1663 1698 
1717 1699 1716 1734 1735 1752 1753 1771 1788 
1789 1770 1807 1806 1825 1824 1843 1861 1860 
1842 1879 1878 1896 1897 1933 1915 1914 1932 
1969 1968 1951 1950 2004 1987 2005 1986 2022 
2041 2023 2040 2077 2076 2059 2058 2094 2112 
2095 2113 2148 2130 2149 2131 2184 2167 2166 
2185 2221 2238 2203 2202 2220 2239 2256 2274 
2275 2257 2311 2293 2292 2310 2328 2347 2346 
2329 2382 2364 2383 2365 2746 2727 2747 2726 
2607 2626 2627 2606 1664 1682 1683 1665 1701 
1718 1700 1719 1755 1754 1737 1736 1791 1773 
1772 1790 1826 1809 1827 1808 1845 1863 1844 
1862 1899 1880 1881 1898 1916 1917 1935 1934 
1970 1953 1952 1971 1988 2006 2007 1989 2024 
2025 2042 2043 2078 2061 2079 2060 2097 2114 
2096 2115 2150 2133 2132 2151 2169 2186 2187 
2168 2204 2223 2222 2205 2241 2276 2240 2259 
2277 2258 2295 2313 2312 2294 2331 2330 2348 
2349 2384 2367 2366 2385 2748 2729 2728 2749 
2629 2608 2628 2609 1667 1685 1684 1666 1721 
1720 1703 1702 1738 1757 1739 1756 1774 1793 
1792 1775 1811 1810 1829 1828 1846 1847 1864 
1865 1882 1883 1901 1900 1918 1936 1919 1937 
1954 1955 1972 1973 2008 1991 1990 2009 2044 
2045 2026 2027 2080 2063 2062 2081 2116 2099 
2098 2117 2152 2134 2153 2135 2170 2188 2189 
2171 2207 2206 2224 2225 2243 2242 2260 2261 
2279 2314 2296 2297 2315 2278 2333 2351 2350 
2332 2386 2387 2368 2369 2731 2751 2730 2750 
2611 2631 2610 2630 1687 1686 1669 1668 1722 
1704 1723 1705 1741 1740 1759 1758 1777 1795 
1794 1776 1831 1830 1813 1812 1866 1867 1849 
1848 1902 1885 1903 1884 1920 1939 1921 1938 
1957 1974 1956 1975 1992 1993 2011 2010 2029 
2047 2028 2046 2082 2064 2083 2065 2118 2119 
2101 2100 2154 2137 2136 2155 2190 2191 2172 
2173 2208 2227 2226 2209 2262 2263 2244 2245 
2299 2298 2317 2316 2280 2281 2334 2335 2352 
2370 2389 2388 2733 2752 2732 2753 2633 2612 
2613 2632 1670 1689 1671 1688 1725 1724 1706 
1707 1761 1742 1760 1743 1797 1779 1796 1778 
1814 1833 1815 1832 1851 1850 1852 1870 1868 
1869 1904 1887 1905 1886 1940 1923 1922 1941 
1976 1959 1977 1958 2012 2013 1995 1994 2030 
2048 2049 2031 2085 2067 2084 2066 2120 2103 
2121 2102 2138 2139 2157 2156 2174 2193 2175 
2192 2228 2210 2211 2229 2247 2264 2246 2265 
2283 2282 2300 2301 2336 2319 2353 2354 2318 
2372 2390 2371 2391 2754 2735 2755 2734 2635 
2634 2615 2614 1672 1691 1690 1673 1727 1708 
1726 1763 1762 1745 1744 1781 1798 1799 1780 
1816 1835 1817 1834 1854 1853 1872 1871 1908 
1888 1906 1907 1890 1889 1926 1925 1944 1942 
1943 1924 1978 1962 1960 1961 1979 1996 2015 
1997 2014 2050 2032 2051 2033 2087 2086 2068 
2069 2122 2105 2123 2104 2158 2159 2140 2141 
2195 2194 2177 2176 2212 2231 2213 2230 2249 
2267 2266 2248 2302 2284 2285 2338 2320 2356 
2355 2337 2392 2373 2374 2736 2756 2757 2737 
2616 2637 2617 2636 1674 1692 1675 1709 1728 
1729 1710 1746 1764 1765 1747 1784 1800 1783 
1782 1801 1818 1836 1819 1856 1855 1837 1873 
1891 1874 1892 1909 1928 1910 1927 1964 1946 
1963 1945 1998 1999 1980 1981 2034 2017 2035 
2016 2053 2052 2071 2070 2088 2106 2107 2089 
2161 2143 2160 2125 2124 2142 2178 2196 2179 
2197 2233 2232 2214 2215 2269 2250 2268 2251 
2286 2304 2303 2321 2322 2339 2340 2375 2357 
2393 2394 2358 2739 2758 2738 2759 2567 2564 
2566 2565 2568 2569 2570 2571 2573 2572 2575 
2574 2578 2576 2577 2579 2583 2581 2580 2582 
2586 2587 2584 2585 2590 2588 2589 2591 2594 
2593 2592 2595 2599 2597 2598 2596 2639 2638 
2618 2619 1677 1694 1676 1693 1695 1712 1711 
1713 1731 80 60 1748 1730 100 120 140 
1749 1767 1766 1785 1802 160 180 1820 200 
220 1803 1838 240 1821 1839 260 1875 280 
300 1857 340 1893 320 360 2000 1929 1911 
1982 380 2018 1947 1965 2036 2072 2001 2054 
1983 2019 2108 2090 2037 2144 2073 2126 2055 
2180 2162 2091 2198 2109 2145 2127 2216 2234 
2181 2252 2270 2163 2306 2287 2288 2305 2342 
2324 2323 2341 2359 2376 2395 2360 2761 2760 
2740 2741 2765 2762 2763 2764 2767 2768 2766 
2769 2772 2771 2770 2773 2776 2774 2775 2777 
2779 2780 2781 2778 2783 2785 2782 2784 2789 
2787 2786 2788 2791 2793 2792 2790 2795 2794 
2796 2797 1121 1240 1141 1220 1181 1280 1260 
1161 1300 1320 1201 1241 1340 1360 1221 1281 
1261 1400 1380 1321 1440 1420 1301 1341 1460 
1480 1361 1520 1381 1401 1500 1560 1540 1441 
1421 1481 1600 1580 1461 0 1501 1640 1620 
1521 40 1541 1581 20 1561 1601 1621 1641 
1642 2 1 22 42 41 21 61 82 
101 81 62 102 141 122 121 142 161 
181 162 182 201 202 222 221 262 261 
242 241 302 282 400 301 281 321 420 
341 440 361 460 381 480 401 500 520 
421 560 441 461 540 580 600 501 481 
521 541 561 640 620 700 2199 680 660 
2217 2235 740 720 2253 2377 760 2271 800 
780 2396 2378 840 761 2289 2325 2307 2343 
880 860 920 2379 900 2361 2397 940 960 
1020 980 1080 1060 1000 1100 941 1001 961 
1140 1041 1120 1040 1160 1061 1180 1200 1101 
1081 1083 1122 1103 1102 1142 1162 1143 1123 
1202 1163 1183 1182 1223 1242 1222 1243 1203 
1262 1283 1282 1263 1302 1303 1322 1323 1343 
1342 1362 1363 1382 1383 1402 1403 1442 1422 
1443 1423 1463 1462 1483 1482 1522 1502 1523 
1503 1543 1562 1542 1563 1582 1583 1602 1603 
1622 1643 1623 43 23 3 44 83 64 
63 84 104 103 124 123 144 163 164 
143 183 184 203 223 204 264 224 244 
243 263 284 303 283 322 343 342 323 
383 363 362 382 422 423 402 403 463 
442 443 462 483 482 502 503 522 523 
542 543 563 601 583 582 581 562 641 
602 621 622 642 661 662 681 682 702 
701 741 820 742 722 721 782 781 801 
762 822 821 802 842 841 861 862 881 
902 901 882 942 943 923 922 921 962 
982 981 963 1021 1042 1003 1002 1023 1022 
1043 1063 1082 1062 1104 1085 1084 1105 1145 
1124 1144 1125 1184 1185 1165 1164 1204 1224 
1225 1205 1244 1265 1264 1245 1284 1324 1305 
1304 1285 1325 1365 1364 1345 1344 1384 1385 
1404 1405 1424 1444 1445 1425 1485 1464 1465 
1484 1524 1504 1505 1525 1565 1545 1564 1544 
1584 1585 1604 1605 1625 1624 1645 1644 5 
24 4 25 65 45 85 105 125 126 
145 166 165 146 185 186 206 205 245 
225 246 226 265 266 285 304 305 286 
324 325 344 345 385 364 384 365 404 
424 425 405 464 444 445 465 484 504 
485 505 524 544 545 525 584 585 564 
565 603 604 623 624 605 644 663 664 
643 684 703 704 683 724 744 743 723 
784 764 765 763 783 824 804 823 803 
843 864 863 845 844 884 903 904 885 
905 883 945 925 944 924 965 983 985 
964 984 1004 1025 1005 1024 1044 1064 1045 
1065 1087 1107 1106 1086 1127 1146 1147 1126 
1166 1186 1167 1187 1206 1226 1227 1207 1267 
1247 1266 1246 1286 1306 1287 1307 1346 1347 
1326 1327 1366 1386 1406 1387 1367 1447 1426 
1446 1427 1407 1467 1486 1487 1466 1507 1506 
1526 1527 1566 1546 1567 1547 1607 1606 1586 
1587 1626 1647 1646 1627 27 6 26 7 
66 47 46 67 86 107 87 106 147 
167 168 127 187 207 188 208 227 247 
248 228 267 268 287 346 326 327 307 
306 347 387 367 366 386 407 427 426 
406 467 447 446 466 506 507 486 487 
546 547 527 526 587 566 567 586 627 
625 607 626 606 667 647 645 666 646 
665 686 707 706 687 705 685 745 725 
746 726 766 787 785 767 786 807 826 
827 806 825 805 866 847 867 865 846 
887 906 907 886 946 947 927 926 986 
966 967 987 1007 1026 1027 1006 1066 1047 
1067 1046 1109 1089 1088 1108 1149 1148 1129 
1128 1189 1169 1168 1188 1229 1228 1209 1208 
1249 1268 1269 1248 1289 1309 1308 1288 1329 
1348 1328 1349 1389 1388 1368 1369 1408 1409 
1448 1428 1449 1429 1489 1488 1469 1468 1528 
1529 1509 1508 1568 1548 1549 1569 1589 1608 
1588 1609 1629 1649 1648 1628 28 9 8 
29 69 49 48 68 89 109 108 88 
128 169 148 129 149 209 189 249 230 
229 250 288 270 289 269 308 309 328 
329 388 368 389 349 348 369 409 408 
428 429 449 468 469 448 489 509 508 
488 528 548 529 549 588 589 569 568 
628 629 608 609 648 668 649 669 708 
689 709 688 747 727 748 749 728 729 
769 788 789 768 808 828 829 809 849 
848 868 869 889 888 909 908 948 929 
928 949 969 968 989 988 1009 1008 1029 
1028 1049 1068 1048 1069 1090 1110 1091 1111 
1151 1150 1130 1131 1170 1171 1191 1190 1231 
1210 1230 1211 1271 1270 1250 1251 1291 1290 
1310 1311 1330 1331 1350 1351 1390 1391 1370 
1371 1450 1430 1451 1410 1431 1411 1470 1491 
1490 1471 1510 1511 1530 1531 1551 1571 1550 
1570 1610 1590 1611 1591 1631 1650 1630 1651 
31 10 30 11 70 51 71 50 90 
110 91 111 131 130 150 170 151 171 
190 211 191 210 231 251 290 291 271 
331 310 330 311 350 351 370 371 390 
391 430 431 411 410 471 451 470 450 
510 511 491 490 530 551 531 550 590 
570 591 571 631 610 611 630 671 670 
651 650 710 691 690 711 751 731 730 
750 790 770 791 771 810 831 811 830 
870 871 850 851 910 891 911 890 930 
931 950 951 971 970 990 991 1030 1031 
1010 1011 1070 1050 1071 1051 1113 1112 1093 
1092 1132 1152 1153 1133 1173 1172 1192 1193 
1212 1233 1232 1213 1253 1252 1273 1272 1293 
1292 1313 1312 1333 1332 1352 1353 1412 1372 
1392 1393 1413 1373 1433 1453 1452 1432 1472 
1493 1492 1473 1532 1513 1533 1512 1573 1552 
1553 1572 1593 1592 1613 1612 1652 1633 1632 
1653 13 12 33 32 72 53 73 52 
112 133 92 93 113 172 152 173 153 
132 192 213 212 193 253 233 252 232 
292 272 293 273 313 312 333 332 372 
353 352 373 393 392 413 432 412 433 
452 472 453 473 493 492 513 512 552 
532 553 533 573 572 593 592 632 612 
613 633 672 652 673 653 693 712 713 
692 733 752 732 753 772 792 773 793 
813 812 833 832 873 853 852 872 893 
892 912 913 933 932 952 953 992 993 
972 973 1033 1013 1012 1032 1053 1052 1072 
1073 1115 1114 1095 1094 1135 1134 1155 1154 
1194 1174 1195 1175 1214 1234 1215 1235 1255 
1254 1275 1274 1295 1315 1314 1294 1335 1334 
1355 1375 1354 1374 1415 1414 1394 1395 1455 
1434 1435 1454 1495 1494 1474 1475 1514 1515 
1535 1534 1554 1555 1575 1574 1594 1614 1595 
1615 1634 1655 1654 1635 14 15 34 35 
55 75 95 74 54 94 135 115 114 
134 154 155 175 174 215 194 195 214 
255 234 235 254 295 275 274 294 315 
335 355 334 314 394 354 375 374 395 
415 414 435 434 455 475 474 454 495 
494 515 514 554 534 555 535 575 574 
595 594 614 615 635 634 655 674 675 
654 694 714 715 695 755 735 754 734 
794 795 774 775 835 814 834 815 855 
875 854 874 895 894 915 914 935 934 
954 955 975 974 994 995 1015 1014 1034 
1035 1075 1054 1074 1055 1116 1096 1097 1117 
1136 1177 1156 1157 1137 1176 1197 1217 1196 
1216 1237 1236 1256 1257 1276 1277 1296 1297 
1316 1337 1317 1336 1356 1377 1376 1357 1417 
1397 1396 1416 1437 1456 1457 1436 1476 1496 
1497 1477 1536 1516 1537 1517 1557 1556 1576 
1577 1597 1637 1616 1617 1596 1657 1656 17 
1636 37 36 56 57 16 97 76 77 
96 137 116 117 136 156 176 177 157 
197 216 196 217 236 257 237 256 317 
297 316 276 296 277 337 356 336 357 
377 376 397 396 417 437 416 436 476 
456 457 477 497 496 516 517 536 537 
556 557 576 597 596 577 617 636 637 
616 676 657 677 656 717 696 697 716 
757 756 737 736 797 776 777 796 816 
836 837 817 857 856 877 876 917 896 
897 916 937 956 957 936 977 996 976 
997 1037 1036 1017 1016 1057 1076 1077 1056 
1239 1118 1259 1138 1158 1299 1178 1279 1339 
1319 1198 1218 1379 1359 1238 1258 1278 1419 
1399 1298 1439 1318 1338 1459 1479 1358 1499 
1378 1539 1519 1398 1418 1458 1559 1579 1438 
1619 1478 1599 1498 1639 19 1558 1659 1538 
1518 39 1578 59 1598 99 1638 1618 79 
18 119 1658 139 179 159 58 38 219 
199 78 98 259 239 138 118 158 279 
299 178 359 218 339 238 198 319 399 
379 278 258 439 298 419 318 479 459 
358 338 398 519 499 378 438 539 418 
559 579 478 599 458 498 518 639 619 
679 538 558 659 719 598 578 699 739 
618 759 638 779 658 799 678 839 819 
718 698 758 738 879 859 778 919 798 
899 939 818 959 838 858 979 999 878 
898 1019 918 1039 938 958 1079 1059 978 
1099 998 1119 1058 1159 1139 1018 1038 1179 
1078 1199 1098 1219 2401 2400 2399 2398 2404 
2403 2405 2402 2409 2407 2408 2406 2413 2412 
2411 2410 2414 2415 2417 2416 2421 2419 2418 
2420 2423 2422 2425 2424 2427 2426 2431 2428 
2429 2430 2434 2435 2433 2432 2438 2436 2439 
2437 2440 2441 2443 2442 2447 2446 2444 2445 
2448 2451 2450 2449 2452 2454 2455 2453 2459 
2458 2456 2457 2463 2461 2460 2462 2467 2466 
2465 2464 2468 2471 2470 2469 2474 2475 2472 
2473 2478 2480 2479 2477 2481 2476 2482 2483 
2484 2485 2489 2486 2487 2488 2490 2491 2492 
2493 2497 2496 2495 2494 2498 2501 2499 2500 
2504 2505 2502 2503 2509 2508 2507 2506 2511 
2512 2513 2510 2514 2515 2516 2517 2518 2519 
2521 2520 2522 2523 2524 2525 2526 2529 2528 
2527 2533 2532 2530 2531 2534 2535 2536 2537 
2538 2539 2543 2540 2541 2542 2544 2545 2546 
2547 2548 2549 2550 2551 2555 2552 2553 2554 
2558 2556 2557 2559 2560 2561 2562 2563 
FIELD FieldData 7
r 3 2798 float
-0.5375 -0.4875 0 -0.5125 -0.4625 0 -0.5125 -0.4875 0 
-0.5375 -0.4625 0 -0.487805 -0.4875 0 -0.463415 -0.4625 0 
-0.487805 -0.4625 0 -0.463415 -0.4875 0 -0.414634 -0.4875 0 
-0.439024 -0.4625 0 -0.439024 -0.4875 0 -0.414634 -0.4625 0 
-0.390244 -0.4625 0 -0.390244 -0.4875 0 -0.365854 -0.4875 0 
-0.365854 -0.4625 0 -0.317073 -0.4625 0 -0.317073 -0.4875 0 
-0.341463 -0.4625 0 -0.341463 -0.4875 0 -0.268293 -0.4875 0 
-0.268293 -0.4625 0 -0.292683 -0.4875 0 -0.292683 -0.4625 0 
-0.219512 -0.4625 0 -0.219512 -0.4875 0 -0.243902 -0.4875 0 
-0.243902 -0.4625 0 -0.195122 -0.4625 0 -0.170732 -0.4875 0 
-0.170732 -0.4625 0 -0.195122 -0.4875 0 -0.121951 -0.4625 0 
-0.121951 -0.4875 0 -0.146341 -0.4625 0 -0.146341 -0.4875 0 
-0.0731707 -0.4625 0 -0.097561 -0.4875 0 -0.0731707 -0.4875 0 
-0.097561 -0.4625 0 -0.0243903 -0.4875 0 -0.0487805 -0.4875 0 
-0.0243903 -0.4625 0 -0.0487805 -0.4625 0 -1.86265e-08 -0.4875 0 
-1.86265e-08 -0.4625 0 0.0243902 -0.4875 0 0.0487805 -0.4875 0 
0.0243902 -0.4625 0 0.0487805 -0.4625 0 0.0731707 -0.4875 0 
0.0731707 -0.4625 0 0.097561 -0.4875 0 0.097561 -0.4625 0 
0.146341 -0.4625 0 0.121951 -0.4625 0 0.146341 -0.4875 0 
0.121951 -0.4875 0 0.170732 -0.4875 0 0.170732 -0.4625 0 
0.195122 -0.4875 0 0.195122 -0.4625 0 0.219512 -0.4875 0 
0.243902 -0.4625 0 0.243902 -0.4875 0 0.219512 -0.4625 0 
0.292683 -0.4625 0 0.268293 -0.4875 0 0.292683 -0.4875 0 
0.268293 -0.4625 0 0.317073 -0.4875 0 0.341463 -0.4875 0 
0.341463 -0.4625 0 0.317073 -0.4625 0 0.365854 -0.4625 0 
0.365854 -0.4875 0 0.390244 -0.4875 0 0.390244 -0.4625 0 
0.414634 -0.4875 0 0.414634 -0.4625 0 0.439024 -0.4875 0 
0.439024 -0.4625 0 0.487805 -0.4625 0 0.487805 -0.4875 0 
0.463415 -0.4625 0 0.463415 -0.4875 0 0.5125 -0.4625 0 
0.5375 -0.4625 0 0.5125 -0.4875 0 0.5375 -0.4875 0 
-0.5375 -0.4125 0 -0.5375 -0.4375 0 -0.5125 -0.4125 0 
-0.5125 -0.4375 0 -0.487944 -0.412151 0 -0.463574 -0.437247 0 
-0.487952 -0.437348 0 -0.463628 -0.411976 0 -0.439399 -0.411963 0 
-0.415041 -0.437307 0 -0.415177 -0.412081 0 -0.439308 -0.437264 0 
-0.366461 -0.412388 0 -0.366336 -0.437405 0 -0.390722 -0.437366 0 
-0.390874 -0.412248 0 -0.317388 -0.437478 0 -0.341886 -0.437452 0 
-0.341934 -0.41253 0 -0.317315 -0.412625 0 -0.267904 -0.412695 0 
-0.292621 -0.412759 0 -0.292838 -0.437535 0 -0.26828 -0.437505 0 
-0.218359 -0.412939 0 -0.243175 -0.41283 0 -0.219104 -0.437597 0 
-0.243726 -0.437559 0 -0.169844 -0.437597 0 -0.16868 -0.412942 0 
-0.194468 -0.437583 0 -0.193511 -0.412913 0 -0.145203 -0.437604 0 
-0.118993 -0.412967 0 -0.120557 -0.437599 0 -0.143839 -0.412972 0 
-0.0959176 -0.437596 0 -0.0941602 -0.412961 0 -0.0712815 -0.437594 0 
-0.0693464 -0.412954 0 -0.0220379 -0.437589 0 -0.0197907 -0.412921 0 
-0.0445543 -0.41294 0 -0.0466527 -0.437591 0 0.0296268 -0.41288 0 
0.00256009 -0.43759 0 0.00493738 -0.412902 0 0.027138 -0.437593 0 
0.0788705 -0.41283 0 0.051692 -0.437597 0 0.07622 -0.437602 0 
0.0542727 -0.412856 0 0.127913 -0.412771 0 0.125191 -0.43761 0 
0.14963 -0.437613 0 0.10072 -0.437606 0 0.103418 -0.412802 0 
0.152354 -0.412738 0 0.176743 -0.412705 0 0.198416 -0.437615 0 
0.174038 -0.437613 0 0.225352 -0.412625 0 0.201077 -0.41267 0 
0.222762 -0.437613 0 0.247071 -0.437605 0 0.249567 -0.412574 0 
0.271347 -0.4376 0 0.273728 -0.412533 0 0.297832 -0.41248 0 
0.295592 -0.437592 0 0.321869 -0.412406 0 0.3198 -0.437572 0 
0.345832 -0.412329 0 0.343967 -0.437555 0 0.392119 -0.437472 0 
0.369708 -0.412205 0 0.368079 -0.43752 0 0.393479 -0.412071 0 
0.440113 -0.437485 0 0.416112 -0.43747 0 0.417187 -0.412043 0 
0.440852 -0.412059 0 0.464544 -0.412213 0 0.488389 -0.412693 0 
0.488371 -0.437816 0 0.464128 -0.43751 0 0.5125 -0.4125 0 
0.5375 -0.4375 0 0.5375 -0.4125 0 0.5125 -0.4375 0 
-0.5125 -0.3875 0 -0.5375 -0.3625 0 -0.5375 -0.3875 0 
-0.5125 -0.3625 0 -0.487956 -0.38694 0 -0.463664 -0.386658 0 
-0.463726 -0.361298 0 -0.487973 -0.361684 0 -0.439472 -0.386628 0 
-0.415464 -0.361516 0 -0.439586 -0.361244 0 -0.415285 -0.386824 0 
-0.390996 -0.387138 0 -0.391209 -0.36203 0 -0.366555 -0.387418 0 
-0.366745 -0.362487 0 -0.342075 -0.36298 0 -0.317223 -0.387899 0 
-0.317242 -0.363275 0 -0.341952 -0.387711 0 -0.292309 -0.363607 0 
-0.2924 -0.388126 0 -0.267358 -0.363465 0 -0.267554 -0.388033 0 
-0.242385 -0.363822 0 -0.217283 -0.364127 0 -0.217715 -0.388466 0 
-0.242688 -0.388268 0 -0.192129 -0.364072 0 -0.192698 -0.388426 0 
-0.167707 -0.388454 0 -0.167014 -0.364082 0 -0.116826 -0.364124 0 
-0.141918 -0.364142 0 -0.142721 -0.388499 0 -0.117731 -0.388489 0 
-0.0667365 -0.364022 0 -0.0678231 -0.388439 0 -0.0917614 -0.364082 0 
-0.092761 -0.388467 0 -0.0180626 -0.388349 0 -0.0417634 -0.363947 0 
-0.0168441 -0.363853 0 -0.042922 -0.3884 0 0.0067448 -0.388292 0 
0.0327993 -0.363621 0 0.00801348 -0.363741 0 0.0314952 -0.38823 0 
0.0821539 -0.363349 0 0.0808131 -0.388085 0 0.0575133 -0.363489 0 
0.0561862 -0.38816 0 0.105375 -0.388005 0 0.12987 -0.387921 0 
0.106718 -0.363203 0 0.131205 -0.363051 0 0.178656 -0.387744 0 
0.154297 -0.387834 0 0.179936 -0.362725 0 0.155612 -0.362891 0 
0.227149 -0.387539 0 0.204177 -0.36255 0 0.20294 -0.387647 0 
0.22834 -0.362369 0 0.276444 -0.362019 0 0.299356 -0.387208 0 
0.252433 -0.362198 0 0.25129 -0.387431 0 0.275363 -0.387334 0 
0.300354 -0.361794 0 0.323263 -0.38705 0 0.347078 -0.386884 0 
0.347888 -0.361285 0 0.324165 -0.361548 0 0.395036 -0.360615 0 
0.371506 -0.360932 0 0.370791 -0.386652 0 0.394403 -0.386414 0 
0.417936 -0.386329 0 0.441732 -0.360226 0 0.441364 -0.38628 0 
0.418465 -0.36041 0 0.48845 -0.387379 0 0.464783 -0.386546 0 
0.488437 -0.361931 0 0.464917 -0.360593 0 0.5375 -0.3875 0 
0.5125 -0.3625 0 0.5375 -0.3625 0 0.5125 -0.3875 0 
-0.5375 -0.3125 0 -0.5125 -0.3375 0 -0.5125 -0.3125 0 
-0.5375 -0.3375 0 -0.487972 -0.3364 0 -0.463735 -0.335902 0 
-0.463712 -0.310489 0 -0.48796 -0.311119 0 -0.439681 -0.310246 0 
-0.415589 -0.33614 0 -0.439633 -0.335795 0 -0.415772 -0.31067 0 
-0.366912 -0.312868 0 -0.366821 -0.337622 0 -0.391552 -0.311892 0 
-0.391353 -0.336932 0 -0.316868 -0.314418 0 -0.341987 -0.313892 0 
-0.342037 -0.338366 0 -0.317066 -0.338776 0 -0.266949 -0.338992 0 
-0.29168 -0.314917 0 -0.266548 -0.314602 0 -0.292005 -0.339205 0 
-0.241318 -0.315367 0 -0.215881 -0.315873 0 -0.241855 -0.339511 0 
-0.216603 -0.339926 0 -0.165184 -0.315611 0 -0.191318 -0.339836 0 
-0.190471 -0.315695 0 -0.166099 -0.33981 0 -0.140906 -0.339881 0 
-0.139917 -0.315714 0 -0.114639 -0.315635 0 -0.115719 -0.339841 0 
-0.0654866 -0.33967 0 -0.0894336 -0.315518 0 -0.0905789 -0.33977 0 
-0.0642831 -0.31538 0 -0.0404596 -0.339544 0 -0.015505 -0.339402 0 
-0.0142026 -0.314977 0 -0.039194 -0.315184 0 0.00938244 -0.339228 0 
0.0107078 -0.31474 0 0.0341904 -0.339038 0 0.0355354 -0.31447 0 