# vtk DataFile Version 4.0
vtk output
ASCII
DATASET POLYDATA
FIELD FieldData 4
domain 1 3 string
domain_min:-20|-15
domain_max:20|15
cell_size:0.05

variables 1 2 string
dt:0.000372678
T:1.96204

constants 1 10 string
xsize:2
ysize:1
csize:0.05
dx:0.0238095
h:0.025
rho0:1000
mass:0.566894
g:1|0
c:13.4164
CFL:0.2

functions 1 8 string
time:T=(T+dt)
continuity:rho_dot=((-(rho*sph_D00(v,mass,rho,Wp52220)))+(((0.1*c)*h)*sph_L00(rho,mass,rho,Wp52220)))
irho:rho=(rho+int1((rho_dot,dt))
EOS:p=(((c^2)*(rho-rho0))+10000)
euler:a=if((gid,(0*v),(((-((1/rho)*sph_G11(p,mass,rho,Wp52220)))+(0.01*sph_L00(v,mass,rho,Wp52220)))+g))
vel:v=(v+int1((a,dt))
pos:r=(r+int1((v,dt))
new_dt:dt=(CFL*min((sqrt(((h/fmax(magnitude((a)))),(h/c)))

POINTS 2798 float
-0.5125 -0.4625 0 -0.5125 -0.4875 0 -0.5375 -0.4625 0 
-0.5375 -0.4875 0 -0.487805 -0.4875 0 -0.463415 -0.4625 0 
-0.487805 -0.4625 0 -0.463415 -0.4875 0 -0.439024 -0.4625 0 
-0.439024 -0.4875 0 -0.414634 -0.4875 0 -0.414634 -0.4625 0 
-0.390244 -0.4625 0 -0.365854 -0.4625 0 -0.365854 -0.4875 0 
-0.390244 -0.4875 0 -0.317073 -0.4625 0 -0.341463 -0.4625 0 
-0.317073 -0.4875 0 -0.341463 -0.4875 0 -0.268293 -0.4625 0 
-0.268293 -0.4875 0 -0.292683 -0.4625 0 -0.292683 -0.4875 0 
-0.219512 -0.4875 0 -0.243902 -0.4625 0 -0.243902 -0.4875 0 
-0.219512 -0.4625 0 -0.195122 -0.4625 0 -0.170732 -0.4625 0 
-0.195122 -0.4875 0 -0.170732 -0.4875 0 -0.146341 -0.4875 0 
-0.121951 -0.4625 0 -0.121951 -0.4875 0 -0.146341 -0.4625 0 
-0.0731707 -0.4625 0 -0.097561 -0.4875 0 -0.0731707 -0.4875 0 
-0.097561 -0.4625 0 -1.86265e-08 -0.4625 0 -1.86265e-08 -0.4875 0 
-0.0487805 -0.4625 0 -0.0243903 -0.4875 0 -0.0243903 -0.4625 0 
-0.0487805 -0.4875 0 0.0243902 -0.4625 0 0.0487805 -0.4625 0 
0.0487805 -0.4875 0 0.0243902 -0.4875 0 0.0731707 -0.4875 0 
0.0731707 -0.4625 0 0.097561 -0.4875 0 0.097561 -0.4625 0 
0.146341 -0.4625 0 0.146341 -0.4875 0 0.121951 -0.4875 0 
0.121951 -0.4625 0 0.195122 -0.4625 0 0.170732 -0.4625 0 
0.195122 -0.4875 0 0.170732 -0.4875 0 0.219512 -0.4625 0 
0.243902 -0.4875 0 0.243902 -0.4625 0 0.219512 -0.4875 0 
0.268293 -0.4625 0 0.292683 -0.4625 0 0.292683 -0.4875 0 
0.268293 -0.4875 0 0.317073 -0.4875 0 0.341463 -0.4625 0 
0.341463 -0.4875 0 0.317073 -0.4625 0 0.365854 -0.4625 0 
0.390244 -0.4875 0 0.390244 -0.4625 0 0.365854 -0.4875 0 
0.439024 -0.4625 0 0.414634 -0.4625 0 0.439024 -0.4875 0 
0.414634 -0.4875 0 0.487805 -0.4625 0 0.463415 -0.4625 0 
0.463415 -0.4875 0 0.487805 -0.4875 0 0.5375 -0.4625 0 
0.5125 -0.4875 0 0.5375 -0.4875 0 0.5125 -0.4625 0 
-0.5375 -0.4375 0 -0.5375 -0.4125 0 -0.5125 -0.4375 0 
-0.5125 -0.4125 0 -0.488815 -0.410711 0 -0.465979 -0.412101 0 
-0.463958 -0.437452 0 -0.488118 -0.43724 0 -0.417459 -0.411607 0 
-0.441204 -0.408109 0 -0.441727 -0.434797 0 -0.41951 -0.437346 0 
-0.371891 -0.438357 0 -0.395895 -0.436676 0 -0.391499 -0.413199 0 
-0.360781 -0.417858 0 -0.32093 -0.436373 0 -0.312112 -0.409908 0 
-0.33518 -0.411903 0 -0.344645 -0.438483 0 -0.288729 -0.411723 0 
-0.252272 -0.437787 0 -0.274647 -0.435483 0 -0.297835 -0.43747 0 
-0.26711 -0.40615 0 -0.226326 -0.438401 0 -0.221788 -0.412637 0 
-0.24519 -0.414699 0 -0.202518 -0.43636 0 -0.17615 -0.410847 0 
-0.199314 -0.409205 0 -0.15234 -0.412249 0 -0.179873 -0.436595 0 
-0.156295 -0.437394 0 -0.107431 -0.40507 0 -0.132545 -0.437594 0 
-0.129085 -0.410037 0 -0.110985 -0.433826 0 -0.0892783 -0.437878 0 
-0.0656077 -0.43677 0 -0.0852525 -0.41258 0 -0.0629095 -0.408651 0 
-0.0400948 -0.408172 0 -0.02157 -0.438399 0 -0.0441509 -0.434953 0 
-0.0174422 -0.41282 0 0.0010068 -0.434626 0 0.041361 -0.411947 0 
0.0239654 -0.438325 0 0.0174873 -0.412953 0 0.0478867 -0.437019 0 
0.0886297 -0.412809 0 0.0951737 -0.437906 0 0.0648717 -0.410914 0 
0.0711374 -0.437039 0 0.137915 -0.411521 0 0.119933 -0.437585 0 
0.112971 -0.413715 0 0.143649 -0.437156 0 0.16743 -0.437246 0 
0.19227 -0.438309 0 0.186861 -0.41465 0 0.161187 -0.411806 0 
0.212668 -0.414531 0 0.242049 -0.437312 0 0.217481 -0.43807 0 
0.239736 -0.414125 0 0.286613 -0.401301 0 0.266476 -0.437946 0 
0.29131 -0.438065 0 0.269819 -0.41575 0 0.340496 -0.434658 0 
0.324385 -0.4054 0 0.30478 -0.418733 0 0.318769 -0.438614 0 
0.346494 -0.411858 0 0.363532 -0.43948 0 0.397788 -0.403917 0 
0.368897 -0.403569 0 0.396304 -0.440673 0 0.379511 -0.424115 0 
0.412105 -0.421599 0 0.427322 -0.439801 0 0.443373 -0.418989 0 
0.429372 -0.401917 0 0.488398 -0.439184 0 0.490498 -0.40934 0 
0.456419 -0.440636 0 0.471319 -0.422837 0 0.5125 -0.4125 0 
0.5375 -0.4125 0 0.5375 -0.4375 0 0.5125 -0.4375 0 
-0.5375 -0.3875 0 -0.5125 -0.3625 0 -0.5125 -0.3875 0 
-0.5375 -0.3625 0 -0.476593 -0.36661 0 -0.489255 -0.384592 0 
-0.455954 -0.354635 0 -0.461349 -0.388535 0 -0.44166 -0.376787 0 
-0.421052 -0.386607 0 -0.416117 -0.361473 0 -0.396572 -0.389014 0 
-0.370816 -0.39734 0 -0.352228 -0.357166 0 -0.391181 -0.365601 0 
-0.367263 -0.373983 0 -0.331103 -0.372534 0 -0.301532 -0.361681 0 
-0.311445 -0.385939 0 -0.344369 -0.390843 0 -0.286747 -0.384952 0 
-0.268909 -0.370869 0 -0.251465 -0.386355 0 -0.25229 -0.352619 0 
-0.228521 -0.387728 0 -0.205826 -0.358427 0 -0.231894 -0.362979 0 
-0.205243 -0.38311 0 -0.180904 -0.385335 0 -0.155211 -0.362201 0 
-0.156313 -0.386785 0 -0.180394 -0.361029 0 -0.113343 -0.373292 0 
-0.132455 -0.38474 0 -0.133119 -0.355457 0 -0.0950815 -0.354691 0 
-0.0927644 -0.384316 0 -0.0698656 -0.383875 0 -0.0725033 -0.358898 0 
-0.0227838 -0.383723 0 -0.0474861 -0.357908 0 -0.0452507 -0.381724 0 
-0.00772885 -0.366287 0 -0.0255262 -0.350686 0 0.0139766 -0.379032 0 
8.41436e-05 -0.398358 0 0.0357395 -0.388553 0 0.0201309 -0.354313 0 
0.0423422 -0.364346 0 0.0850993 -0.387386 0 0.06125 -0.3852 0 
0.0680805 -0.359756 0 0.0913644 -0.362608 0 0.133615 -0.388243 0 
0.115648 -0.364131 0 0.109275 -0.388626 0 0.135167 -0.353047 0 
0.176043 -0.364856 0 0.192595 -0.391024 0 0.15001 -0.373677 0 
0.167542 -0.389631 0 0.202473 -0.370327 0 0.234605 -0.376185 0 
0.219803 -0.392913 0 0.220267 -0.355114 0 0.288685 -0.36739 0 
0.252105 -0.395833 0 0.253229 -0.361684 0 0.269973 -0.381019 0 
0.324721 -0.374197 0 0.345141 -0.385307 0 0.309276 -0.354896 0 
0.305505 -0.38737 0 0.376331 -0.358319 0 0.39895 -0.382305 0 
0.372216 -0.381087 0 0.350213 -0.361122 0 0.402089 -0.359102 0 
0.429385 -0.359671 0 0.425243 -0.381514 0 0.461386 -0.399353 0 
0.460979 -0.359786 0 0.486057 -0.365792 0 0.484837 -0.386419 0 
0.452591 -0.379863 0 0.5375 -0.3625 0 0.5125 -0.3625 0 
0.5125 -0.3875 0 0.5375 -0.3875 0 -0.5375 -0.3375 0 
-0.5125 -0.3125 0 -0.5125 -0.3375 0 -0.5375 -0.3125 0 
-0.488473 -0.318091 0 -0.470148 -0.33276 0 -0.451038 -0.320864 0 
-0.490849 -0.348013 0 -0.434898 -0.300388 0 -0.425119 -0.324104 0 
-0.404361 -0.339087 0 -0.435158 -0.346397 0 -0.402837 -0.311592 0 
-0.380819 -0.320931 0 -0.355388 -0.311206 0 -0.378591 -0.344681 0 
-0.353314 -0.334434 0 -0.303077 -0.333726 0 -0.329191 -0.325706 0 
-0.323263 -0.304655 0 -0.32467 -0.349408 0 -0.281286 -0.348407 0 
-0.269311 -0.328517 0 -0.295158 -0.313749 0 -0.271842 -0.30435 0 
-0.230397 -0.308152 0 -0.223063 -0.339179 0 -0.2456 -0.327288 0 
-0.208395 -0.319624 0 -0.178079 -0.313524 0 -0.191384 -0.336607 0 
-0.166058 -0.337764 0 -0.154857 -0.308665 0 -0.113682 -0.340936 0 
-0.143249 -0.331562 0 -0.1234 -0.317047 0 -0.0813585 -0.33147 0 
-0.0988975 -0.317328 0 -0.0617558 -0.309622 0 -0.0574969 -0.334197 0 
-0.0337036 -0.327265 0 -0.0109044 -0.320167 0 -0.0389613 -0.302357 0 
0.0424984 -0.307595 0 0.0298983 -0.331043 0 0.0141303 -0.314797 0 
0.000321136 -0.340934 0 0.0931205 -0.312485 0 0.0516992 -0.340284 0 
0.063495 -0.31806 0 0.0805395 -0.335651 0 0.104276 -0.338646 0 
0.114401 -0.305569 0 0.124936 -0.329166 0 0.146904 -0.322779 0 
0.175418 -0.327667 0 0.191179 -0.345704 0 0.164816 -0.305432 0 
0.158577 -0.346367 0 0.195772 -0.312414 0 0.211321 -0.331594 0 
0.240362 -0.340592 0 0.231637 -0.317155 0 0.293314 -0.335284 0 
0.272606 -0.34747 0 0.252505 -0.302496 0 0.260373 -0.325789 0 
0.28202 -0.313515 0 0.332232 -0.344987 0 0.339454 -0.316757 0 
0.305221 -0.304456 0 0.316523 -0.325792 0 0.35747 -0.336356 0 
0.383304 -0.335312 0 0.394636 -0.315046 0 0.364654 -0.312693 0 
0.425316 -0.31884 0 0.440731 -0.341283 0 0.410827 -0.337539 0 
0.450602 -0.316589 0 0.470799 -0.302443 0 0.489309 -0.316817 0 
0.466609 -0.334689 0 0.488829 -0.342265 0 0.5125 -0.3125 0 
0.5125 -0.3375 0 0.5375 -0.3125 0 0.5375 -0.3375 0 
-0.5375 -0.2875 0 -0.5375 -0.2625 0 -0.5125 -0.2625 0 
-0.5125 -0.2875 0 -0.464337 -0.299719 0 -0.487351 -0.293187 0 
-0.465787 -0.271448 0 -0.488706 -0.267558 0 -0.412187 -0.289941 0 
-0.442324 -0.251186 0 -0.403908 -0.250843 0 -0.444331 -0.278895 0 
-0.421462 -0.26711 0 -0.376896 -0.296176 0 -0.381495 -0.255112 0 
-0.391729 -0.278369 0 -0.362461 -0.274481 0 -0.321653 -0.276023 0 
-0.344489 -0.290556 0 -0.338762 -0.261159 0 -0.301814 -0.290251 0 
-0.279383 -0.28021 0 -0.298283 -0.261635 0 -0.261966 -0.265814 0 
-0.251402 -0.29639 0 -0.210402 -0.263189 0 -0.239915 -0.275028 0 
-0.217576 -0.286747 0 -0.232377 -0.251106 0 -0.195903 -0.297368 0 
-0.174151 -0.253168 0 -0.168541 -0.286332 0 -0.187626 -0.272444 0 
-0.135052 -0.295079 0 -0.123707 -0.270322 0 -0.149494 -0.273723 0 
-0.102842 -0.251395 0 -0.109426 -0.291654 0 -0.0724251 -0.258516 0 
-0.0933574 -0.273154 0 -0.083157 -0.298311 0 -0.0646968 -0.281876 0 
-0.0157104 -0.295415 0 -0.0482611 -0.25277 0 -0.0192917 -0.268847 0 
-0.0416073 -0.277593 0 0.00906406 -0.292313 0 0.0293391 -0.263341 0 
0.0339535 -0.286847 0 0.00414487 -0.268768 0 0.0552855 -0.254472 0 
0.0574968 -0.27894 0 0.0729562 -0.296027 0 0.0799081 -0.264784 0 
0.0950732 -0.283645 0 0.118029 -0.277802 0 0.136561 -0.297978 0 
0.105512 -0.255036 0 0.13599 -0.263329 0 0.18405 -0.290704 0 
0.153649 -0.282077 0 0.173241 -0.267804 0 0.194933 -0.257428 0 
0.216631 -0.29863 0 0.228144 -0.263591 0 0.206122 -0.277715 0 
0.238515 -0.283956 0 0.25211 -0.250177 0 0.261174 -0.271119 0 
0.275431 -0.290401 0 0.285267 -0.261906 0 0.299704 -0.281323 0 
0.325146 -0.271763 0 0.309792 -0.253719 0 0.328308 -0.29466 0 
[...]
POINT_DATA 2798
SCALARS id float
LOOKUP_TABLE default
2621 2620 2601 2600 2640 2643 2641 2642 2645 
2644 2646 2647 2649 2651 2650 2648 2655 2653 
2654 2652 2659 2658 2657 2656 2662 2661 2660 
2663 2665 2667 2664 2666 2668 2671 2670 2669 
2675 2672 2674 2673 2681 2680 2677 2678 2679 
2676 2683 2685 2684 2682 2686 2687 2688 2689 
2693 2692 2690 2691 2697 2695 2696 2694 2699 
2700 2701 2698 2703 2705 2704 2702 2706 2709 
2708 2707 2711 2712 2713 2710 2717 2715 2716 
2714 2721 2719 2718 2720 2743 2722 2742 2723 
2602 2603 2622 2623 1697 1696 1678 1660 1768 
1750 1714 1732 1804 1786 1823 1840 1876 1949 
1913 1858 1967 1930 1912 1894 1985 1948 2093 
1966 1984 2129 2111 2147 2020 2038 2184 2056 
2165 2074 2092 2110 2183 2201 2219 2146 2128 
2237 2164 2291 2182 2218 2200 2329 2254 2310 
2236 2330 2272 2328 2290 2309 2308 2347 2331 
2350 2326 2327 2349 2366 2346 2348 2365 2344 
2368 2364 2345 2363 2362 2371 2370 2380 2383 
2386 2382 2367 2390 2384 2387 2381 2385 2725 
2745 2744 2724 2604 2625 2624 2605 1679 1661 
1733 1715 1787 1805 1824 1841 1822 1895 1842 
1859 1914 1950 1931 1877 1986 2004 2003 2021 
2057 2075 2002 2112 2130 2167 2148 2131 2203 
2166 2185 2221 2202 2220 2239 2256 2257 2238 
2275 2276 2274 2255 2273 2293 2292 2313 2311 
2312 2315 2316 2300 2332 2283 2336 2334 2317 
2333 2335 2353 2352 2248 2284 2351 2318 2354 
2337 2372 1461 2369 0 2090 2267 340 1101 
2213 2231 2389 280 2355 2388 2391 2747 2727 
2726 2746 2606 2627 2626 2607 1698 1716 1769 
1662 1788 1825 1843 1806 1862 1861 1878 1860 
1896 2005 1933 1968 1932 2022 2040 2023 2041 
2077 2039 2058 2076 2113 2094 2149 2150 2222 
2186 2204 2240 2223 2241 2258 2259 2277 2242 
2297 2295 2278 2294 2299 2296 2298 2314 2282 
2265 2247 2125 21 2266 2018 2230 1441 2142 
1875 1362 60 2195 1521 1481 100 1620 1460 
1161 20 1122 1281 1141 1201 1400 1341 1420 
1221 1183 320 2373 2301 2729 2728 2749 2748 
2608 2609 2629 2628 1734 1680 1752 1717 1844 
1770 1881 1751 1807 1879 1916 1880 1897 1951 
1915 1934 1987 2024 1969 2060 2059 2097 2078 
2096 2079 2095 2115 2132 2114 2168 2205 2169 
2190 2206 2191 2207 2224 2208 2260 2156 2243 
2225 2279 2262 2280 2261 2263 2246 2281 2194 
2264 2229 2212 2054 2072 1522 1929 1581 1911 
120 1946 1838 140 180 1361 1561 40 1301 
1928 1600 1541 1820 1540 1181 1261 1729 1241 
1040 1520 1766 1440 1121 1001 1081 1321 2731 
2730 2750 2751 2631 2610 2630 2611 1735 1753 
1771 1663 1789 1899 1826 1898 1953 1971 1935 
1988 1989 1970 1952 2043 2042 2006 2061 2063 
2062 2080 2064 2133 2116 2099 2081 2098 2151 
2187 2188 2189 2173 2170 2172 2140 2209 2155 
2174 2139 2123 2244 2226 2245 2193 2228 2211 
2227 2177 2036 2124 2159 1821 2176 1893 2035 
1857 1839 1803 2107 1964 1998 1 1982 1731 
1926 1910 1963 1837 1892 160 1802 1580 1713 
1749 1560 1784 1873 1712 1767 1300 2732 2733 
2753 2752 2613 2632 2633 2612 1790 1808 1718 
1699 1882 1900 1845 1863 1901 1936 1954 1918 
1917 1955 2007 1990 1972 2025 1991 2027 2008 
2026 2044 2045 2010 2028 2029 1993 2046 2047 
2117 2134 2082 2152 2100 2135 2065 2171 2136 
2101 2120 2192 2153 2154 2210 2157 2138 2089 
2158 2141 2175 2052 2070 2087 2053 2071 2105 
2050 2106 2000 2088 2017 1981 2034 1693 462 
2016 1980 1979 762 1942 900 1909 542 1853 
1120 1675 1891 1819 1818 2735 2755 2754 2734 
2635 2615 2614 2634 1700 1681 1736 1772 1864 
1809 1846 1827 1883 1902 1919 1920 1937 1903 
1973 1938 1956 1885 1957 1974 2009 1924 1977 
1975 1992 1976 1958 1905 1817 1923 1959 1870 
2030 1835 1871 1852 1941 1781 1816 2011 2083 
2012 1711 1994 1925 2048 1798 1995 1780 2137 
1689 1705 1723 2122 2066 2121 2119 1960 2118 
2014 2103 2068 2104 2085 2015 2049 2033 2032 
2051 2102 1890 1908 2069 1856 1999 1785 1962 
1997 80 820 1874 1783 1180 1945 2325 2145 
1080 1220 1676 2757 2736 2756 2737 2636 2616 
2617 2637 1665 1664 1682 1719 1865 1754 1737 
1828 1884 1847 1866 220 1867 1792 1829 1738 
1921 1848 1831 1868 1939 1940 1849 1904 1811 
1922 1887 1739 1813 1869 1794 1722 1758 1886 
1832 1741 1775 1850 1776 1834 1670 1727 1777 
1795 1851 1779 1740 1742 1815 1673 1797 2357 
1906 1745 2013 1944 1799 1978 1746 2084 1708 
2031 1726 1762 1100 1814 2323 2086 1671 2067 
1888 1140 1709 1961 1996 1927 1889 2306 1728 
2288 2397 1710 2758 2738 2759 2739 2566 2565 
2564 2567 2571 2569 2568 2570 2572 2574 2573 
2575 2578 2577 2579 2576 2582 2580 2583 2581 
2586 2587 2585 2584 2589 2591 2588 2590 2592 
2594 2593 2595 2597 2598 2599 2596 2638 2618 
2619 2639 1666 1701 1683 1773 1062 1791 1720 
1668 1755 1702 1810 1401 1601 1667 1684 1703 
1222 2160 1262 861 1830 1669 1685 2338 1793 
402 1812 260 980 1774 1757 2392 1756 2374 
1721 2250 2356 1704 1686 404 2215 1142 843 
2320 1282 2232 2251 940 2234 681 2214 1760 
2303 1283 1543 1674 2361 1778 1523 1796 1744 
1691 1759 2376 1833 2359 2198 2252 2375 1725 
1695 1724 2377 1943 800 1707 1763 2271 2741 
2740 2761 2760 2763 2764 2762 2765 2769 2767 
2768 2766 2770 2773 2772 2771 2774 2776 2777 
2775 2780 2781 2778 2779 2782 2785 2783 2784 
2786 2788 2789 2787 2793 2792 2791 2790 2795 
2794 2797 2796 780 162 1801 1500 680 2289 
1730 1836 2342 1765 421 2217 720 1380 460 
2091 1800 1200 223 1747 1041 1748 482 1872 
1242 881 261 1260 1907 802 1764 862 822 
1320 263 921 1782 1854 941 1692 1643 1102 
981 221 363 541 1202 620 2285 560 1694 
101 1677 1340 1021 2178 2319 362 701 423 
1240 682 521 381 501 600 2181 641 124 
920 721 321 264 240 262 901 442 1000 
2249 2143 783 621 1061 722 463 403 742 
343 801 703 382 760 323 962 2126 883 
1182 1322 903 1502 1342 1947 1381 1402 804 
1023 1184 1043 723 1621 1243 1022 1687 961 
2358 1003 803 2343 1582 2179 2216 601 1303 
1123 2396 2394 1223 41 1743 461 1761 640 
1542 1688 2019 1672 1020 806 2287 2339 2199 
2341 2270 2360 761 2304 163 2307 2037 1480 
2180 2321 2378 1060 2055 1855 520 1690 1544 
341 1124 2197 1302 1145 1064 1564 1983 2109 
1143 1045 200 964 1602 1383 1264 1706 1363 
141 1224 660 360 143 2324 81 42 2268 
1344 1065 61 480 1443 2340 83 2162 1563 
1404 1385 561 182 22 420 860 1423 2269 
1364 2127 1345 281 3 1360 2379 104 2286 
1160 2001 1280 700 540 481 43 441 1604 
380 122 422 84 1605 302 103 241 1603 
123 4 102 1585 1565 1485 1525 1504 740 
62 105 282 144 401 361 1505 6 301 
242 222 283 224 85 580 383 27 184 
661 880 203 304 960 364 781 782 344 
245 582 342 284 522 841 741 305 1421 
922 1082 602 583 2302 923 1203 942 662 
821 643 823 622 201 763 1162 744 2305 
1063 1382 983 1044 1204 181 864 1103 161 
2235 1042 963 884 1083 2161 902 1185 2253 
844 2395 2393 1144 2163 786 300 2233 840 
2196 1422 1483 1105 2108 1004 984 766 1263 
1024 646 845 784 805 725 745 765 787 
687 746 1641 924 925 1501 1106 905 1482 
1104 1086 985 1562 1025 1164 1463 1225 965 
1442 945 1244 1125 907 500 1424 1085 1066 
1087 986 1366 1403 1503 1343 1462 1186 1006 
1384 1323 987 23 1304 967 2322 1067 1365 
1265 1227 1524 400 1207 121 63 440 82 
1644 1965 1622 1325 1642 1187 1266 1286 1346 
1623 1305 2 1545 142 1425 1405 1584 1583 
1406 1465 1426 44 1486 25 1466 1446 26 
5 1624 1645 64 45 24 1547 244 1586 
1567 1506 204 443 324 183 66 46 165 
86 322 166 243 325 186 205 225 285 
702 147 365 563 1002 483 683 502 562 
366 444 405 642 503 385 664 543 326 
544 684 863 943 1640 982 523 663 464 
623 625 743 1163 882 704 764 825 842 
665 604 566 605 705 904 546 724 506 
626 526 785 466 487 486 685 525 507 
547 586 467 607 666 606 686 647 826 
885 706 865 866 807 944 1084 767 788 
867 886 887 848 827 906 868 847 689 
728 748 1046 966 849 888 1047 869 1005 
1126 946 1205 926 1165 948 1026 908 947 
1088 927 928 1007 1206 1284 1027 1226 1285 
1245 2073 1166 2144 1128 1246 1109 1127 1324 
1167 1147 1464 1208 1267 1228 1148 1306 1387 
1444 1247 1347 1307 1484 1367 1386 1445 1327 
1407 1368 1625 1546 1428 1427 1487 1467 1447 
1566 1448 1527 1468 1526 1646 1606 65 1626 
202 1627 1607 303 1647 164 7 146 67 
125 185 47 581 126 87 266 206 345 
286 226 167 265 148 424 246 187 384 
227 306 386 189 287 346 208 228 209 
247 229 484 267 603 624 307 565 644 
504 824 485 645 564 524 425 584 347 
585 446 545 465 505 426 408 388 447 
427 449 527 468 448 488 508 567 568 
587 627 548 588 608 747 726 707 589 
846 667 727 648 668 688 628 649 708 
629 669 670 729 709 768 808 749 828 
829 769 789 850 870 830 889 809 909 
891 890 851 910 988 968 1107 1068 1146 
1008 949 1108 1089 989 1028 1069 1048 1029 
1049 1090 1050 1110 1070 1188 1130 1091 1129 
1168 1229 1209 1149 1111 1287 1210 1189 1248 
1326 1268 1288 1308 1348 1309 1328 1329 1349 
1388 1408 1369 1409 1429 1488 1469 1548 1507 
1449 1528 1508 1568 1509 1587 1588 1608 1510 
1549 1529 1589 1628 1569 1648 1609 1629 145 
8 106 48 88 28 29 68 127 49 
207 108 69 107 188 128 168 89 129 
150 149 169 327 249 248 170 190 268 
269 288 250 289 309 308 406 328 348 
329 445 407 367 387 368 409 350 389 
410 390 429 428 430 411 450 489 469 
470 490 509 528 549 529 510 511 550 
530 570 569 551 590 609 591 571 610 
630 631 611 650 690 671 651 730 731 
711 691 710 770 771 751 750 791 790 
810 811 871 831 852 892 872 911 929 
912 930 931 1009 951 970 971 990 969 
950 1010 991 1011 1051 1032 1031 1030 1012 
1052 1092 1072 1093 1071 1132 1131 1113 1112 
1170 1150 1151 1190 1169 1231 1249 1269 1211 
1230 1291 1270 1290 1289 1250 1310 1311 1330 
1331 1350 1370 1351 1332 1389 1430 1410 1371 
1390 1489 1470 1450 1492 1490 1471 1491 1531 
1511 1530 1550 1551 1571 1590 1570 1591 1610 
1611 1649 1630 10 9 1650 1631 11 51 
50 31 30 91 70 71 109 90 111 
131 130 110 132 151 133 171 172 152 
191 210 211 270 232 231 230 310 271 
290 251 330 291 369 349 331 370 311 
352 332 391 371 392 372 351 412 432 
431 452 451 471 472 493 513 492 512 
491 531 532 552 553 573 592 572 593 
612 633 632 613 672 652 673 653 692 
712 693 713 732 733 752 753 772 773 
792 793 812 813 832 833 874 854 873 
853 894 893 913 914 933 953 932 973 
952 992 1013 972 993 1054 1033 1034 1053 
1094 1074 1073 1115 1133 1114 1134 1152 1192 
1153 1191 1172 1171 1253 1233 1232 1213 1212 
1272 1251 1252 1271 1312 1292 1293 1313 1352 
1333 1354 1353 1372 1373 1411 1391 1392 1432 
1451 1412 1431 1452 1493 1473 1472 1532 1513 
1533 1512 1552 1572 1573 1553 1592 1593 1612 
1613 1651 1632 1652 1633 1653 33 12 32 
13 52 72 53 73 92 113 112 93 
154 153 155 134 174 173 193 192 234 
213 212 272 273 253 233 252 312 293 
292 394 373 415 414 435 393 434 455 
413 433 454 474 495 475 453 473 534 
494 515 514 554 555 533 575 595 574 
594 615 614 655 634 635 674 675 695 
654 715 694 714 735 755 734 775 754 
815 795 794 835 774 814 916 896 834 
855 875 935 895 955 975 934 915 995 
1035 954 974 1015 1075 1014 994 1055 1095 
1136 1155 1175 1154 1135 1195 1174 1173 1194 
1214 1235 1193 1255 1234 1275 1254 1295 1274 
1273 1335 1315 1294 1314 1355 1375 1334 1374 
1395 1394 1393 1414 1435 1415 1454 1434 1433 
1475 1455 1413 1453 1495 1494 1474 1515 1534 
1555 1514 1535 1595 1554 1575 1574 1615 1594 
1614 1635 1634 1654 15 1655 35 55 34 
14 75 54 95 115 74 176 114 94 
156 135 276 175 196 296 235 194 195 
255 315 295 214 275 254 294 274 314 
375 313 353 395 333 354 456 677 697 
476 717 496 737 516 757 777 535 797 
536 817 556 576 596 857 616 837 917 
877 897 656 636 676 937 957 696 716 
997 977 736 756 776 1017 796 1037 1057 
816 836 1077 1097 876 856 1117 1137 1177 
956 936 1197 976 996 1217 1237 1257 1036 
1016 1056 1277 1297 1076 1096 1317 1337 1116 
1377 1157 1176 1357 1156 1216 1397 1437 1417 
1196 1236 1457 1215 1497 1276 1256 1517 1477 
1537 1296 1557 1316 1577 1356 1597 1336 1376 
1617 1396 1637 1657 1436 1416 1456 37 1476 
17 57 77 1496 1516 97 1536 117 1556 
137 1576 1596 157 1636 217 197 1616 177 
1656 16 237 277 56 36 317 297 96 
357 76 337 136 397 417 116 216 437 
457 236 257 377 477 376 256 497 336 
215 537 557 517 316 356 355 335 577 
597 334 416 396 617 637 436 657 374 
1318 959 1338 979 1298 999 1019 1358 1378 
1039 1398 1418 1059 1079 1438 1458 1099 1119 
1139 1159 1498 1478 1199 1179 1538 1518 1578 
1239 1558 1219 1598 1259 1638 1618 1279 1319 
18 1658 1299 1339 38 1359 1399 78 1379 
58 98 1419 118 1439 178 1479 158 138 
1459 1499 1519 218 1539 198 1579 238 1559 
258 278 1599 298 1619 1659 1639 338 318 
19 378 358 39 59 79 99 418 398 
458 119 438 139 478 498 159 179 219 
538 199 518 239 259 578 558 299 279 
638 618 598 678 319 658 339 379 698 
359 718 399 419 738 758 778 439 459 
798 479 499 838 818 539 878 519 858 
918 579 898 559 958 619 938 599 998 
659 639 978 679 1018 699 1038 1078 1058 
739 719 1098 759 1118 779 1138 819 1158 
799 839 1198 1178 859 879 1218 899 1238 
939 1258 1278 919 2401 2400 2398 2399 2404 
2402 2403 2405 2406 2407 2409 2408 2412 2410 
2413 2411 2417 2414 2415 2416 2420 2419 2421 
2418 2422 2424 2426 2423 2425 2427 2430 2431 
2429 2428 2432 2433 2434 2435 2437 2438 2436 
2439 2442 2440 2443 2441 2445 2444 2446 2447 
2451 2450 2449 2448 2455 2452 2454 2453 2456 
2458 2459 2457 2461 2462 2460 2463 2466 2467 
2465 2464 2471 2468 2469 2470 2474 2475 2472 
2473 2481 2480 2478 2477 2476 2479 2482 2483 
2484 2485 2488 2489 2487 2486 2493 2492 2490 
2491 2497 2496 2495 2494 2499 2498 2500 2501 
2502 2505 2503 2504 2507 2506 2508 2509 2511 
2510 2513 2512 2517 2515 2514 2516 2519 2521 
2520 2518 2523 2524 2525 2522 2527 2526 2528 
2529 2531 2530 2533 2532 2534 2535 2536 2537 
2538 2539 2541 2543 2542 2540 2547 2546 2544 
2545 2548 2549 2550 2551 2553 2554 2555 2552 
2558 2556 2557 2559 2560 2561 2562 2563 
FIELD FieldData 7
r 3 2798 float
-0.5125 -0.4625 0 -0.5125 -0.4875 0 -0.5375 -0.4625 0 
-0.5375 -0.4875 0 -0.487805 -0.4875 0 -0.463415 -0.4625 0 
-0.487805 -0.4625 0 -0.463415 -0.4875 0 -0.439024 -0.4625 0 
-0.439024 -0.4875 0 -0.414634 -0.4875 0 -0.414634 -0.4625 0 
-0.390244 -0.4625 0 -0.365854 -0.4625 0 -0.365854 -0.4875 0 
-0.390244 -0.4875 0 -0.317073 -0.4625 0 -0.341463 -0.4625 0 
-0.317073 -0.4875 0 -0.341463 -0.4875 0 -0.268293 -0.4625 0 
-0.268293 -0.4875 0 -0.292683 -0.4625 0 -0.292683 -0.4875 0 
-0.219512 -0.4875 0 -0.243902 -0.4625 0 -0.243902 -0.4875 0 
-0.219512 -0.4625 0 -0.195122 -0.4625 0 -0.170732 -0.4625 0 
-0.195122 -0.4875 0 -0.170732 -0.4875 0 -0.146341 -0.4875 0 
-0.121951 -0.4625 0 -0.121951 -0.4875 0 -0.146341 -0.4625 0 
-0.0731707 -0.4625 0 -0.097561 -0.4875 0 -0.0731707 -0.4875 0 
-0.097561 -0.4625 0 -1.86265e-08 -0.4625 0 -1.86265e-08 -0.4875 0 
-0.0487805 -0.4625 0 -0.0243903 -0.4875 0 -0.0243903 -0.4625 0 
-0.0487805 -0.4875 0 0.0243902 -0.4625 0 0.0487805 -0.4625 0 
0.0487805 -0.4875 0 0.0243902 -0.4875 0 0.0731707 -0.4875 0 
0.0731707 -0.4625 0 0.097561 -0.4875 0 0.097561 -0.4625 0 
0.146341 -0.4625 0 0.146341 -0.4875 0 0.121951 -0.4875 0 
0.121951 -0.4625 0 0.195122 -0.4625 0 0.170732 -0.4625 0 
0.195122 -0.4875 0 0.170732 -0.4875 0 0.219512 -0.4625 0 
0.243902 -0.4875 0 0.243902 -0.4625 0 0.219512 -0.4875 0 
0.268293 -0.4625 0 0.292683 -0.4625 0 0.292683 -0.4875 0 
0.268293 -0.4875 0 0.317073 -0.4875 0 0.341463 -0.4625 0 
0.341463 -0.4875 0 0.317073 -0.4625 0 0.365854 -0.4625 0 
0.390244 -0.4875 0 0.390244 -0.4625 0 0.365854 -0.4875 0 
0.439024 -0.4625 0 0.414634 -0.4625 0 0.439024 -0.4875 0 
0.414634 -0.4875 0 0.487805 -0.4625 0 0.463415 -0.4625 0 
0.463415 -0.4875 0 0.487805 -0.4875 0 0.5375 -0.4625 0 
0.5125 -0.4875 0 0.5375 -0.4875 0 0.5125 -0.4625 0 
-0.5375 -0.4375 0 -0.5375 -0.4125 0 -0.5125 -0.4375 0 
-0.5125 -0.4125 0 -0.488815 -0.410711 0 -0.465979 -0.412101 0 
-0.463958 -0.437452 0 -0.488118 -0.43724 0 -0.417459 -0.411607 0 
-0.441204 -0.408109 0 -0.441727 -0.434797 0 -0.41951 -0.437346 0 
-0.371891 -0.438357 0 -0.395895 -0.436676 0 -0.391499 -0.413199 0 
-0.360781 -0.417858 0 -0.32093 -0.436373 0 -0.312112 -0.409908 0 
-0.33518 -0.411903 0 -0.344645 -0.438483 0 -0.288729 -0.411723 0 
-0.252272 -0.437787 0 -0.274647 -0.435483 0 -0.297835 -0.43747 0 
-0.26711 -0.40615 0 -0.226326 -0.438401 0 -0.221788 -0.412637 0 
-0.24519 -0.414699 0 -0.202518 -0.43636 0 -0.17615 -0.410847 0 
-0.199314 -0.409205 0 -0.15234 -0.412249 0 -0.179873 -0.436595 0 
-0.156295 -0.437394 0 -0.107431 -0.40507 0 -0.132545 -0.437594 0 
-0.129085 -0.410037 0 -0.110985 -0.433826 0 -0.0892783 -0.437878 0 
-0.0656077 -0.43677 0 -0.0852525 -0.41258 0 -0.0629095 -0.408651 0 
-0.0400948 -0.408172 0 -0.02157 -0.438399 0 -0.0441509 -0.434953 0 
-0.0174422 -0.41282 0 0.0010068 -0.434626 0 0.041361 -0.411947 0 
0.0239654 -0.438325 0 0.0174873 -0.412953 0 0.0478867 -0.437019 0 
0.0886297 -0.412809 0 0.0951737 -0.437906 0 0.0648717 -0.410914 0 
0.0711374 -0.437039 0 0.137915 -0.411521 0 0.119933 -0.437585 0 
0.112971 -0.413715 0 0.143649 -0.437156 0 0.16743 -0.437246 0 
0.19227 -0.438309 0 0.186861 -0.41465 0 0.161187 -0.411806 0 
0.212668 -0.414531 0 0.242049 -0.437312 0 0.217481 -0.43807 0 
0.239736 -0.414125 0 0.286613 -0.401301 0 0.266476 -0.437946 0 
0.29131 -0.438065 0 0.269819 -0.41575 0 0.340496 -0.434658 0 
0.324385 -0.4054 0 0.30478 -0.418733 0 0.318769 -0.438614 0 
0.346494 -0.411858 0 0.363532 -0.43948 0 0.397788 -0.403917 0 
0.368897 -0.403569 0 0.396304 -0.440673 0 0.379511 -0.424115 0 
0.412105 -0.421599 0 0.427322 -0.439801 0 0.443373 -0.418989 0 
0.429372 -0.401917 0 0.488398 -0.439184 0 0.490498 -0.40934 0 
0.456419 -0.440636 0 0.471319 -0.422837 0 0.5125 -0.4125 0 
0.5375 -0.4125 0 0.5375 -0.4375 0 0.5125 -0.4375 0 
-0.5375 -0.3875 0 -0.5125 -0.3625 0 -0.5125 -0.3875 0 
-0.5375 -0.3625 0 -0.476593 -0.36661 0 -0.489255 -0.384592 0 
-0.455954 -0.354635 0 -0.461349 -0.388535 0 -0.44166 -0.376787 0 
-0.421052 -0.386607 0 -0.416117 -0.361473 0 -0.396572 -0.389014 0 
-0.370816 -0.39734 0 -0.352228 -0.357166 0 -0.391181 -0.365601 0 
-0.367263 -0.373983 0 -0.331103 -0.372534 0 -0.301532 -0.361681 0 
-0.311445 -0.385939 0 -0.344369 -0.390843 0 -0.286747 -0.384952 0 
-0.268909 -0.370869 0 -0.251465 -0.386355 0 -0.25229 -0.352619 0 
-0.228521 -0.387728 0 -0.205826 -0.358427 0 -0.231894 -0.362979 0 
-0.205243 -0.38311 0 -0.180904 -0.385335 0 -0.155211 -0.362201 0 
-0.156313 -0.386785 0 -0.180394 -0.361029 0 -0.113343 -0.373292 0 
-0.132455 -0.38474 0 -0.133119 -0.355457 0 -0.0950815 -0.354691 0 
-0.0927644 -0.384316 0 -0.0698656 -0.383875 0 -0.0725033 -0.358898 0 
-0.0227838 -0.383723 0 -0.0474861 -0.357908 0 -0.0452507 -0.381724 0 
-0.00772885 -0.366287 0 -0.0255262 -0.350686 0 0.0139766 -0.379032 0 
8.41436e-05 -0.398358 0 0.0357395 -0.388553 0 0.0201309 -0.354313 0 
0.0423422 -0.364346 0 0.0850993 -0.387386 0 0.06125 -0.3852 0 
0.0680805 -0.359756 0 0.0913644 -0.362608 0 0.133615 -0.388243 0 
0.115648 -0.364131 0 0.109275 -0.388626 0 0.135167 -0.353047 0 
0.176043 -0.364856 0 0.192595 -0.391024 0 0.15001 -0.373677 0 
0.167542 -0.389631 0 0.202473 -0.370327 0 0.234605 -0.376185 0 
0.219803 -0.392913 0 0.220267 -0.355114 0 0.288685 -0.36739 0 
0.252105 -0.395833 0 0.253229 -0.361684 0 0.269973 -0.381019 0 
0.324721 -0.374197 0 0.345141 -0.385307 0 0.309276 -0.354896 0 
0.305505 -0.38737 0 0.376331 -0.358319 0 0.39895 -0.382305 0 
0.372216 -0.381087 0 0.350213 -0.361122 0 0.402089 -0.359102 0 
0.429385 -0.359671 0 0.425243 -0.381514 0 0.461386 -0.399353 0 
0.460979 -0.359786 0 0.486057 -0.365792 0 0.484837 -0.386419 0 
0.452591 -0.379863 0 0.5375 -0.3625 0 0.5125 -0.3625 0 
0.5125 -0.3875 0 0.5375 -0.3875 0 -0.5375 -0.3375 0 
-0.5125 -0.3125 0 -0.5125 -0.3375 0 -0.5375 -0.3125 0 
-0.488473 -0.318091 0 -0.470148 -0.33276 0 -0.451038 -0.320864 0 
-0.490849 -0.348013 0 -0.434898 -0.300388 0 -0.425119 -0.324104 0 
-0.404361 -0.339087 0 -0.435158 -0.346397 0 -0.402837 -0.311592 0 
-0.380819 -0.320931 0 -0.355388 -0.311206 0 -0.378591 -0.344681 0 
-0.353314 -0.334434 0 -0.303077 -0.333726 0 -0.329191 -0.325706 0 
-0.323263 -0.304655 0 -0.32467 -0.349408 0 -0.281286 -0.348407 0 
-0.269311 -0.328517 0 -0.295158 -0.313749 0 -0.271842 -0.30435 0 
-0.230397 -0.308152 0 -0.223063 -0.339179 0 -0.2456 -0.327288 0 
-0.208395 -0.319624 0 -0.178079 -0.313524 0 -0.191384 -0.336607 0 
-0.166058 -0.337764 0 -0.154857 -0.308665 0 -0.113682 -0.340936 0 
-0.143249 -0.331562 0 -0.1234 -0.317047 0 -0.0813585 -0.33147 0 
-0.0988975 -0.317328 0 -0.0617558 -0.309622 0 -0.0574969 -0.334197 0 
-0.0337036 -0.327265 0 -0.0109044 -0.320167 0 -0.0389613 -0.302357 0 
0.0424984 -0.307595 0 0.0298983 -0.331043 0 0.0141303 -0.314797 0 