# vtk DataFile Version 4.0
vtk output
ASCII
DATASET POLYDATA
FIELD FieldData 4
domain 1 3 string
domain_min:-20|-15
domain_max:20|15
cell_size:0.05

variables 1 2 string
dt:0.000372678
T:2.39469

constants 1 10 string
xsize:2
ysize:1
csize:0.05
dx:0.0238095
h:0.025
rho0:1000
mass:0.566894
g:1|0
c:13.4164
CFL:0.2

functions 1 8 string
time:T=(T+dt)
continuity:rho_dot=((-(rho*sph_D00(v,mass,rho,Wp52220)))+(((0.1*c)*h)*sph_L00(rho,mass,rho,Wp52220)))
irho:rho=(rho+int1((rho_dot,dt))
EOS:p=(((c^2)*(rho-rho0))+10000)
euler:a=if((gid,(0*v),(((-((1/rho)*sph_G11(p,mass,rho,Wp52220)))+(0.01*sph_L00(v,mass,rho,Wp52220)))+g))
vel:v=(v+int1((a,dt))
pos:r=(r+int1((v,dt))
new_dt:dt=(CFL*min((sqrt(((h/fmax(magnitude((a)))),(h/c)))

POINTS 2798 float
-0.5375 -0.4875 0 -0.5125 -0.4625 0 -0.5125 -0.4875 0 
-0.5375 -0.4625 0 -0.487805 -0.4875 0 -0.463415 -0.4625 0 
-0.487805 -0.4625 0 -0.463415 -0.4875 0 -0.414634 -0.4875 0 
-0.414634 -0.4625 0 -0.439024 -0.4625 0 -0.439024 -0.4875 0 
-0.365854 -0.4625 0 -0.390244 -0.4625 0 -0.365854 -0.4875 0 
-0.390244 -0.4875 0 -0.317073 -0.4875 0 -0.317073 -0.4625 0 
-0.341463 -0.4625 0 -0.341463 -0.4875 0 -0.292683 -0.4875 0 
-0.268293 -0.4875 0 -0.268293 -0.4625 0 -0.292683 -0.4625 0 
-0.219512 -0.4625 0 -0.243902 -0.4625 0 -0.243902 -0.4875 0 
-0.219512 -0.4875 0 -0.170732 -0.4625 0 -0.170732 -0.4875 0 
-0.195122 -0.4875 0 -0.195122 -0.4625 0 -0.121951 -0.4625 0 
-0.146341 -0.4875 0 -0.121951 -0.4875 0 -0.146341 -0.4625 0 
-0.097561 -0.4625 0 -0.0731707 -0.4625 0 -0.097561 -0.4875 0 
-0.0731707 -0.4875 0 -0.0487805 -0.4875 0 -0.0243903 -0.4875 0 
-0.0487805 -0.4625 0 -0.0243903 -0.4625 0 -1.86265e-08 -0.4625 0 
-1.86265e-08 -0.4875 0 0.0243902 -0.4875 0 0.0487805 -0.4875 0 
0.0487805 -0.4625 0 0.0243902 -0.4625 0 0.097561 -0.4875 0 
0.0731707 -0.4875 0 0.0731707 -0.4625 0 0.097561 -0.4625 0 
0.146341 -0.4875 0 0.121951 -0.4625 0 0.146341 -0.4625 0 
0.121951 -0.4875 0 0.170732 -0.4875 0 0.195122 -0.4875 0 
0.170732 -0.4625 0 0.195122 -0.4625 0 0.219512 -0.4875 0 
0.219512 -0.4625 0 0.243902 -0.4875 0 0.243902 -0.4625 0 
0.292683 -0.4625 0 0.292683 -0.4875 0 0.268293 -0.4875 0 
0.268293 -0.4625 0 0.317073 -0.4625 0 0.317073 -0.4875 0 
0.341463 -0.4875 0 0.341463 -0.4625 0 0.390244 -0.4875 0 
0.390244 -0.4625 0 0.365854 -0.4625 0 0.365854 -0.4875 0 
0.439024 -0.4625 0 0.414634 -0.4875 0 0.439024 -0.4875 0 
0.414634 -0.4625 0 0.487805 -0.4625 0 0.463415 -0.4625 0 
0.487805 -0.4875 0 0.463415 -0.4875 0 0.5125 -0.4625 0 
0.5375 -0.4875 0 0.5375 -0.4625 0 0.5125 -0.4875 0 
-0.5375 -0.4375 0 -0.5375 -0.4125 0 -0.5125 -0.4375 0 
-0.5125 -0.4125 0 -0.489229 -0.435457 0 -0.490084 -0.406567 0 
-0.467749 -0.412703 0 -0.465775 -0.437822 0 -0.424327 -0.413086 0 
-0.446238 -0.405792 0 -0.40104 -0.410093 0 -0.443088 -0.435417 0 
-0.41933 -0.438146 0 -0.354016 -0.40874 0 -0.372183 -0.43745 0 
-0.39581 -0.43654 0 -0.377404 -0.412173 0 -0.327834 -0.435811 0 
-0.331685 -0.408188 0 -0.306584 -0.435757 0 -0.349488 -0.435822 0 
-0.309734 -0.407374 0 -0.288191 -0.406777 0 -0.263692 -0.437239 0 
-0.265986 -0.409989 0 -0.2856 -0.434956 0 -0.219179 -0.412483 0 
-0.243155 -0.407757 0 -0.241853 -0.434849 0 -0.219238 -0.437789 0 
-0.151463 -0.412161 0 -0.195414 -0.437359 0 -0.195358 -0.411295 0 
-0.15154 -0.437954 0 -0.173205 -0.404792 0 -0.173665 -0.434026 0 
-0.129089 -0.409135 0 -0.128124 -0.436323 0 -0.106667 -0.409876 0 
-0.105741 -0.436352 0 -0.082369 -0.437599 0 -0.0588946 -0.412421 0 
-0.082886 -0.412449 0 -0.0582356 -0.437535 0 -0.0344514 -0.437142 0 
-0.0121238 -0.408962 0 -0.0116615 -0.436467 0 -0.0349881 -0.411434 0 
0.0331875 -0.437954 0 0.0104528 -0.435851 0 0.0104552 -0.409593 0 
0.0345072 -0.411318 0 0.0762845 -0.437934 0 0.0546856 -0.433597 0 
0.0558583 -0.403841 0 0.0774049 -0.412421 0 0.0997898 -0.436783 0 
0.122478 -0.436508 0 0.102285 -0.411435 0 0.144628 -0.435904 0 
0.126501 -0.409638 0 0.16764 -0.438275 0 0.150799 -0.410793 0 
0.190505 -0.434727 0 0.174854 -0.412561 0 0.194716 -0.402474 0 
0.211985 -0.437123 0 0.240627 -0.413713 0 0.236025 -0.437582 0 
0.214847 -0.412573 0 0.26043 -0.438166 0 0.285244 -0.437204 0 
0.292375 -0.412154 0 0.266825 -0.414783 0 0.334407 -0.438186 0 
0.308607 -0.437828 0 0.320049 -0.416336 0 0.343169 -0.410874 0 
0.358452 -0.438495 0 0.393135 -0.418464 0 0.365847 -0.416311 0 
0.385328 -0.439603 0 0.434124 -0.432237 0 0.41519 -0.412297 0 
0.413169 -0.439832 0 0.4469 -0.410444 0 0.469019 -0.422494 0 
0.456322 -0.441223 0 0.487919 -0.439584 0 0.490389 -0.412404 0 
0.5375 -0.4125 0 0.5125 -0.4375 0 0.5125 -0.4125 0 
0.5375 -0.4375 0 -0.5375 -0.3875 0 -0.5375 -0.3625 0 
-0.5125 -0.3875 0 -0.5125 -0.3625 0 -0.470752 -0.385639 0 
-0.490146 -0.375736 0 -0.464765 -0.357364 0 -0.448553 -0.378553 0 
-0.4238 -0.386794 0 -0.401814 -0.383172 0 -0.429152 -0.361973 0 
-0.408546 -0.353141 0 -0.36299 -0.359522 0 -0.353884 -0.381653 0 
-0.386949 -0.361575 0 -0.377696 -0.387437 0 -0.331384 -0.356641 0 
-0.308214 -0.379489 0 -0.307733 -0.352314 0 -0.331109 -0.381464 0 
-0.264232 -0.383436 0 -0.260381 -0.356364 0 -0.283708 -0.352973 0 
-0.286219 -0.378896 0 -0.235188 -0.355765 0 -0.219798 -0.387851 0 
-0.211291 -0.364003 0 -0.24174 -0.380125 0 -0.194677 -0.385676 0 
-0.155915 -0.356717 0 -0.180647 -0.368766 0 -0.160248 -0.383446 0 
-0.110974 -0.354418 0 -0.133209 -0.357635 0 -0.114011 -0.381995 0 
-0.137331 -0.384103 0 -0.0676489 -0.387054 0 -0.0661597 -0.360631 0 
-0.0912647 -0.386441 0 -0.0889246 -0.360565 0 -0.0212539 -0.383356 0 
-0.0204057 -0.356523 0 -0.0443275 -0.38627 0 -0.0431323 -0.359952 0 
0.0236607 -0.386357 0 0.0032065 -0.354503 0 0.0456441 -0.379071 0 
0.0251018 -0.359647 0 0.000956018 -0.381218 0 0.05757 -0.358649 0 
0.0945473 -0.388566 0 0.0816012 -0.358174 0 0.0722125 -0.383 0 
0.106122 -0.367831 0 0.138482 -0.36874 0 0.123069 -0.386638 0 
0.165865 -0.360928 0 0.17632 -0.38304 0 0.192844 -0.356372 0 
0.153219 -0.387865 0 0.201475 -0.37716 0 0.22481 -0.365562 0 
0.22454 -0.38967 0 0.249931 -0.39072 0 0.29538 -0.378029 0 
0.250753 -0.367476 0 0.274942 -0.391297 0 0.27468 -0.363951 0 
0.334198 -0.38558 0 0.311433 -0.394296 0 0.345684 -0.362119 0 
0.317964 -0.364653 0 0.398024 -0.361882 0 0.357859 -0.386967 0 
0.3745 -0.368055 0 0.380269 -0.395409 0 0.42998 -0.393825 0 
0.42086 -0.372202 0 0.40096 -0.388226 0 0.432722 -0.353526 0 
0.451719 -0.381025 0 0.469635 -0.395276 0 0.49003 -0.383637 0 
0.480875 -0.363635 0 0.457026 -0.359516 0 0.5375 -0.3875 0 
0.5125 -0.3625 0 0.5375 -0.3625 0 0.5125 -0.3875 0 
-0.5375 -0.3375 0 -0.5125 -0.3375 0 -0.5375 -0.3125 0 
-0.5125 -0.3125 0 -0.487065 -0.349173 0 -0.476546 -0.305694 0 
-0.464051 -0.329594 0 -0.490224 -0.323571 0 -0.424326 -0.328002 0 
-0.444684 -0.313407 0 -0.443395 -0.343774 0 -0.411101 -0.305359 0 
-0.376691 -0.335916 0 -0.360904 -0.318161 0 -0.385313 -0.30646 0 
-0.399198 -0.329674 0 -0.334571 -0.318657 0 -0.34722 -0.341247 0 
-0.315283 -0.329819 0 -0.301746 -0.310006 0 -0.256392 -0.332794 0 
-0.285714 -0.329645 0 -0.268335 -0.311873 0 -0.228226 -0.333675 0 
-0.202144 -0.343495 0 -0.20748 -0.318302 0 -0.238384 -0.312307 0 
-0.183557 -0.316951 0 -0.178841 -0.343903 0 -0.159261 -0.328485 0 
-0.162534 -0.302353 0 -0.136482 -0.331789 0 -0.137616 -0.305549 0 
-0.114538 -0.325686 0 -0.0944526 -0.305088 0 -0.0713116 -0.308551 0 
-0.0701257 -0.334309 0 -0.092831 -0.332823 0 -0.0465728 -0.308272 0 
-0.0469415 -0.333905 0 -0.0207846 -0.306118 0 -0.0236787 -0.330593 0 
0.021563 -0.323804 0 0.000344122 -0.330057 0 0.0376985 -0.341216 0 
0.0032821 -0.302436 0 0.0443036 -0.312743 0 0.0931703 -0.338457 0 
0.0618423 -0.33368 0 0.0794373 -0.318403 0 0.132411 -0.304516 0 
0.148386 -0.323648 0 0.142598 -0.345389 0 0.117698 -0.348049 0 
0.100445 -0.307538 0 0.118135 -0.324512 0 0.171056 -0.338356 0 
0.163047 -0.304027 0 0.182864 -0.317703 0 0.249454 -0.343255 0 
0.24105 -0.322033 0 0.222547 -0.343958 0 0.217131 -0.315045 0 
0.201056 -0.334454 0 0.278954 -0.317147 0 0.258045 -0.306433 0 
0.272544 -0.338093 0 0.296431 -0.349963 0 0.29981 -0.30235 0 
0.325013 -0.314368 0 0.346393 -0.330319 0 0.3268 -0.342853 0 
0.304333 -0.32819 0 0.377478 -0.323543 0 0.388601 -0.30087 0 
0.357134 -0.309038 0 0.393697 -0.340848 0 0.365109 -0.346242 0 
0.430283 -0.303299 0 0.442005 -0.322061 0 0.419802 -0.336357 0 
0.407244 -0.317039 0 0.490235 -0.302848 0 0.458931 -0.337029 0 
0.481181 -0.323985 0 0.462014 -0.306799 0 0.49019 -0.343778 0 
0.5375 -0.3375 0 0.5125 -0.3125 0 0.5375 -0.3125 0 
0.5125 -0.3375 0 -0.5125 -0.2625 0 -0.5125 -0.2875 0 
-0.5375 -0.2625 0 -0.5375 -0.2875 0 -0.490885 -0.286386 0 
-0.457858 -0.291269 0 -0.476073 -0.269271 0 -0.429074 -0.252609 0 
-0.445983 -0.270968 0 -0.414494 -0.27197 0 -0.429563 -0.292017 0 
-0.363121 -0.292906 0 -0.37427 -0.269779 0 -0.393812 -0.283209 0 
-0.397232 -0.252413 0 -0.349331 -0.268592 0 -0.307537 -0.251428 0 
-0.315692 -0.291408 0 -0.326441 -0.267729 0 -0.33893 -0.295101 0 
-0.27782 -0.25415 0 -0.250347 -0.292381 0 -0.296811 -0.273341 0 
-0.265388 -0.274183 0 -0.282884 -0.29299 0 -0.246152 -0.257852 0 
-0.230181 -0.275977 0 -0.21629 -0.251966 0 -0.202407 -0.271762 0 
-0.217455 -0.296251 0 -0.184596 -0.255038 0 -0.155894 -0.258092 0 
-0.190529 -0.29253 0 -0.170797 -0.277861 0 -0.12423 -0.268366 0 
-0.116121 -0.296797 0 -0.143857 -0.281252 0 -0.102287 -0.273946 0 
-0.0807002 -0.281424 0 -0.0872608 -0.252107 0 -0.0568266 -0.284501 0 
-0.0640807 -0.25913 0 -0.0310799 -0.28371 0 -0.013103 -0.256716 0 
-0.0388881 -0.261054 0 -0.00581655 -0.279256 0 0.0263837 -0.294847 0 
0.04116 -0.257842 0 0.0473465 -0.280794 0 0.018193 -0.271667 0 
0.084288 -0.250394 0 0.0642816 -0.299483 0 0.0870746 -0.286068 0 
0.0696503 -0.270066 0 0.11594 -0.28723 0 0.133474 -0.267868 0 
0.104085 -0.266222 0 0.148943 -0.284384 0 0.194287 -0.260599 0 
0.166938 -0.264329 0 0.179538 -0.283916 0 0.198505 -0.298739 0 
0.234769 -0.267824 0 0.211063 -0.278081 0 0.230856 -0.294739 0 
0.257849 -0.25457 0 0.28099 -0.28817 0 0.254493 -0.282854 0 
0.278285 -0.26519 0 0.337431 -0.293527 0 0.326692 -0.257434 0 
[...]
POINT_DATA 2798
SCALARS id float
LOOKUP_TABLE default
2600 2621 2620 2601 2640 2643 2641 2642 2646 
2647 2645 2644 2651 2649 2650 2648 2654 2655 
2653 2652 2656 2658 2659 2657 2663 2661 2660 
2662 2667 2666 2664 2665 2671 2668 2670 2669 
2673 2675 2672 2674 2676 2678 2677 2679 2681 
2680 2682 2684 2685 2683 2688 2686 2687 2689 
2692 2691 2693 2690 2694 2696 2695 2697 2698 
2699 2700 2701 2705 2704 2702 2703 2707 2706 
2708 2709 2712 2713 2711 2710 2717 2714 2716 
2715 2721 2719 2720 2718 2723 2742 2743 2722 
2602 2603 2622 2623 1660 1697 1714 1678 1840 
1823 1913 1732 1786 1967 1858 1804 1949 1894 
1912 1930 1876 1948 2129 2020 2147 1984 2183 
2165 2038 2056 2237 2074 2201 2110 2219 2092 
2218 2128 2291 2146 2164 2329 2310 2182 2200 
2330 2236 2328 2272 2254 2331 2347 2309 2290 
2350 2349 2308 2327 2365 2326 2366 2346 2364 
2348 2368 2372 2345 2370 2344 2363 2362 2380 
2371 2383 2382 2386 2390 2231 2367 280 2391 
2381 2388 2373 2389 2301 2387 2385 2384 2355 
2745 2724 2725 2744 2604 2605 2624 2625 1696 
1661 1750 1768 1822 1877 1841 1859 1985 1966 
1914 1931 2057 2111 2112 2093 2148 2167 2131 
2130 2203 2184 2202 2166 2220 2275 2238 2256 
2312 2274 2273 2255 2313 2300 2311 2315 2316 
2317 2332 2283 2334 2336 2352 2335 2333 2353 
2354 2318 2351 2284 1461 2369 1460 1620 1181 
2337 1122 1201 340 0 1101 1281 2267 1141 
2213 2090 1400 1420 1729 1221 1440 1341 1183 
1001 1121 1712 1081 1321 320 1767 1873 2746 
2727 2747 2726 2606 2626 2607 2627 1715 1733 
1787 1679 1842 1824 1805 1860 1986 2004 1950 
1895 2002 2003 2075 2094 2185 2149 2186 2221 
2239 2258 2222 2276 2257 2293 2294 2292 2295 
2314 2299 2265 2247 2282 2212 2125 2018 2230 
2142 2266 2248 21 1362 2195 1875 1481 1301 
1161 20 60 1561 100 1541 1928 1820 1241 
1802 1540 1580 1261 900 1942 1040 1520 762 
1120 1853 1766 1749 1560 1180 1909 1713 1784 
1783 1675 1891 542 1220 1818 1819 1080 1300 
2748 2729 2749 2728 2629 2628 2609 2608 1662 
1806 1716 1861 1825 1896 1843 2022 2005 1932 
1933 2040 2077 2039 2058 2021 2095 2204 2076 
2150 2113 2168 2223 2224 2241 2240 2242 2260 
2259 2277 2297 2296 2278 2298 2281 2246 2264 
2263 2229 2054 2194 1929 1441 1581 120 1522 
1946 1521 1361 140 40 1 180 1600 1963 
1731 1910 160 462 1837 1892 2034 1979 1693 
2016 820 1908 1785 1874 1856 1962 80 1961 
2325 1709 1997 1927 2145 1676 1945 2731 2751 
2730 2750 2630 2611 2610 2631 1734 1769 1698 
1680 1788 1862 1879 1878 1968 2023 2024 2041 
1987 2078 2060 2059 2096 2114 2132 2097 2207 
2169 2206 2189 2208 2225 2191 2243 2279 2261 
2280 2245 2262 2209 2244 2211 2226 2228 2227 
2124 1893 2177 2072 1911 1821 1838 1839 2070 
2107 2035 1803 1998 1964 1982 1857 1926 2017 
1980 1981 2051 2033 2088 2015 1708 2102 2032 
2049 1978 1890 2069 1999 1100 2086 1746 1762 
2067 2031 2306 2288 1889 1140 2733 2752 2732 
2753 2612 2633 2613 2632 1717 1770 1752 1751 
1844 1881 1807 1915 1897 1880 1969 1952 1951 
1934 2042 2062 2006 2061 2079 2080 2081 2063 
2098 2205 2115 2133 2099 2064 2187 2116 2188 
2190 2173 2174 2156 2172 2100 1941 2140 2155 
2136 2171 2123 2139 2193 2158 2210 2192 2176 
2175 2159 2157 2141 2053 2089 2036 2052 2071 
2068 2087 2121 2106 2000 2105 2122 2118 2085 
2050 2104 2014 2084 1906 2013 1944 2357 1745 
2234 1673 1799 1814 2303 1283 1674 1996 1710 
1888 2754 2735 2755 2734 2614 2634 2635 2615 
1789 1826 1735 1663 1898 1935 1916 1989 1971 
1970 1953 2043 1988 2025 2007 2027 2045 2044 
2010 2009 2046 2028 2029 1977 1993 1992 2152 
2151 2170 2117 2047 1959 2134 2135 2082 2065 
2012 1835 2011 2154 1870 2101 2153 2138 1871 
2120 1852 1816 1794 2083 2137 1711 2048 2119 
1705 1960 2103 1851 1777 1689 1723 1780 2066 
1795 2215 1797 1779 1742 1740 2250 1815 2320 
2232 404 1282 2251 1695 1760 2323 240 2736 
2757 2737 2756 2616 2617 2636 2637 1790 1771 
1753 1699 1917 1900 1863 1899 1937 1936 1972 
1918 1954 1990 1955 1938 2008 1920 1973 2026 
1737 1991 1974 1956 1829 1885 1939 1903 1957 
1924 1868 1976 1975 1905 1867 1849 1958 1817 
1831 1921 1940 2030 1904 1667 1923 1887 1922 
1692 1684 1811 1702 1813 541 1781 1830 1869 
1793 1758 1669 1925 1994 1995 1722 1703 1727 
861 1798 1812 1834 1775 1850 1886 1776 1741 
2374 2356 1670 1142 682 1686 1757 2143 783 
2377 1061 2739 2758 2738 2759 2566 2567 2565 
2564 2570 2568 2571 2569 2573 2574 2575 2572 
2578 2577 2576 2579 2583 2581 2580 2582 2587 
2585 2584 2586 2589 2590 2588 2591 2594 2592 
2595 2593 2599 2597 2596 2598 2638 2619 2639 
2618 1718 2037 1700 1808 1681 1919 1901 1882 
1902 520 1846 1883 1730 1827 1809 1736 1500 
1665 1664 1719 1701 1263 1380 1320 1865 1682 
1884 720 1828 1041 1866 220 1847 1683 482 
1242 2342 1754 1200 1792 1810 1601 1102 1791 
1773 1848 1748 2091 1260 822 1782 1062 1706 
862 141 2160 1755 1907 1739 1854 263 1677 
2285 1021 1401 1685 1668 981 1262 1222 1643 
260 1721 1832 980 2338 2392 843 901 1704 
2181 2761 2760 2740 2741 2763 2762 2764 2765 
2769 2766 2767 2768 2770 2772 2773 2771 2774 
2775 2777 2776 2781 2780 2778 2779 2783 2785 
2784 2782 2788 2787 2789 2786 2792 2791 2790 
2793 2797 2794 2795 2796 1725 1728 1671 1182 
1778 883 1022 800 2396 1763 1947 1744 1759 
903 1184 601 2252 1743 1043 2394 461 640 
2343 1023 1672 1688 1582 803 2287 2019 41 
1303 2199 181 1761 1003 761 1542 2341 763 
1044 163 823 1382 983 1480 1020 1864 1855 
1845 806 1690 1063 2378 2339 780 2307 2360 
2270 2304 2180 1836 1772 1765 2321 840 2233 
1801 1747 341 1800 2217 2395 844 162 1105 
1544 680 421 1564 1738 2197 802 1720 1666 
223 460 1983 1045 2109 845 1383 1064 200 
964 1641 881 941 561 261 1872 1385 921 
360 420 1764 22 81 61 860 2340 1774 
281 2269 363 2319 1694 1756 402 1240 3 
920 701 940 123 2178 641 742 423 264 
124 321 1160 600 463 302 1000 442 1605 
521 1691 2249 441 2214 1726 241 1543 2361 
681 401 2376 361 2397 343 262 382 2359 
1943 403 1325 105 801 740 62 1523 722 
621 224 2126 1504 282 1796 301 2198 242 
962 703 760 1502 1342 222 323 2375 661 
1833 304 2358 1402 1621 781 1322 1707 960 
2271 922 961 2302 723 1724 1421 741 841 
582 2179 1243 1223 1123 923 602 1162 744 
201 622 702 643 444 563 2305 366 821 
161 963 1204 503 1185 884 2253 2235 2161 
625 2393 2055 2163 902 864 1103 623 982 
1083 1422 1144 464 1163 1060 743 984 2289 
1483 764 2108 904 300 1145 1004 2196 1302 
1124 724 665 605 566 705 766 660 1143 
1602 1024 1363 1264 805 480 1224 1501 2268 
745 83 42 500 2324 1404 620 1344 1364 
1443 1066 1403 1202 1340 1225 362 221 182 
560 2127 540 700 101 1423 1424 501 481 
104 1280 2379 43 121 381 422 2322 1604 
2286 1227 1345 122 380 84 721 1365 1304 
1525 4 102 103 63 1524 1585 440 1965 
1007 947 1088 1642 1005 1485 1644 1622 1603 
1565 1346 1286 1187 1623 2 1505 1266 144 
1425 1405 6 44 1406 85 283 1267 5 
1583 580 27 1466 383 25 1687 1645 184 
26 1381 804 782 342 1547 364 880 203 
522 64 245 284 305 2216 243 325 86 
324 1082 322 1203 225 583 66 942 285 
662 1002 166 683 365 186 147 543 483 
642 502 1042 405 562 581 286 385 664 
943 345 863 684 544 663 1640 786 523 
603 882 247 386 825 307 624 704 842 
327 484 824 564 485 604 584 644 546 
347 626 785 506 784 746 585 646 545 
924 725 1106 143 905 765 685 687 1086 
1065 1563 1482 1164 1104 1463 985 945 2162 
1025 1087 1125 907 1343 1360 986 1085 1384 
847 868 728 1503 849 1046 2001 1186 23 
967 400 1006 1323 987 1067 1207 1265 926 
828 1205 946 948 829 908 1026 927 1226 
82 2144 1128 2073 1284 1206 1285 1127 1245 
1545 1584 1324 1305 142 1464 1246 1148 1208 
1049 1167 1110 1465 1228 1247 1484 1426 1387 
1444 1486 24 1367 1624 1446 1386 45 1487 
1546 1445 1567 244 1506 183 1586 344 1448 
1428 1566 443 165 1527 1468 204 1447 65 
1409 1526 46 303 1627 1646 1647 7 205 
164 1607 202 146 206 185 47 226 266 
126 125 384 167 145 424 187 265 326 
306 88 227 246 287 346 228 207 208 
168 108 229 209 189 149 565 188 267 
504 645 268 248 425 524 288 406 526 
505 308 446 465 426 486 525 466 586 
547 787 686 925 487 507 666 606 866 
527 1562 944 865 887 1442 1244 788 965 
1084 767 886 867 827 906 848 707 727 
668 628 648 688 1462 590 748 1047 966 
1366 888 1165 1126 808 729 690 749 889 
769 850 809 870 789 928 890 1027 909 
830 851 968 910 1107 1146 891 1068 1008 
1069 1166 1108 1089 1109 1048 1090 1029 1010 
1009 1147 1188 1030 1050 1209 1129 1306 1149 
1130 1347 1229 1111 1168 1307 1326 1368 1427 
1407 1625 1268 1288 1327 1328 1348 1309 1467 
1388 1308 1329 1349 1408 1606 1626 1369 1429 
1488 1528 1548 1507 1449 1587 1568 1508 1608 
1588 1549 1529 67 1628 87 8 1589 1648 
1569 1609 28 1629 106 48 1649 127 68 
9 49 148 29 107 30 69 50 89 
70 128 90 109 129 169 130 150 249 
190 210 170 269 171 289 328 191 250 
309 270 445 348 329 407 447 427 387 
367 467 448 468 488 885 826 706 567 
607 627 587 647 807 726 588 747 568 
608 528 846 667 549 570 550 589 569 
529 709 708 689 629 670 768 669 869 
671 651 631 650 632 672 711 710 691 
751 730 731 750 770 790 791 771 810 
811 871 831 988 929 892 949 969 1028 
930 989 990 950 951 970 991 992 1011 
971 1032 1031 1051 1012 1070 1093 1091 1092 
1071 1150 1112 1287 1189 1132 1131 1170 1248 
1169 1210 1269 1230 1211 1190 1231 1250 1249 
1290 1289 1291 1330 1270 1310 1331 1311 1350 
1469 1351 1370 1389 1410 1430 1489 1509 1450 
1490 1470 1471 1491 1530 1510 1570 1511 1531 
1550 1551 1590 1572 1571 1610 1591 1631 1630 
1592 1611 1612 1632 10 1651 1650 31 32 
51 11 71 91 92 110 131 151 111 
132 133 153 173 152 172 231 212 211 
230 310 233 232 290 251 349 368 271 
369 409 388 389 408 428 449 429 469 
410 508 411 430 548 470 450 489 510 
490 509 511 491 512 530 551 610 609 
649 592 611 591 630 633 614 612 613 
652 693 673 653 713 712 733 732 692 
773 752 753 772 812 793 792 852 832 
872 853 874 873 911 912 894 893 932 
931 913 953 993 972 973 952 1013 1033 
1034 1054 1074 1052 1072 1053 1073 1113 1094 
1133 1151 1152 1153 1134 1191 1171 1192 1172 
1212 1213 1233 1232 1251 1271 1272 1252 1253 
1292 1312 1293 1313 1371 1352 1332 1372 1390 
1391 1411 1392 1412 1451 1431 1432 1452 1473 
1492 1472 1493 1513 1512 1532 1552 1553 1573 
1533 1593 1614 1613 1594 13 1633 1653 1652 
1634 12 52 33 73 93 72 53 155 
154 112 134 113 174 175 194 193 192 
234 213 253 254 214 252 273 272 293 
291 330 311 350 292 331 370 390 352 
351 372 391 392 371 412 431 432 451 
452 471 473 472 492 513 493 553 571 
552 531 532 594 572 593 573 715 654 
695 675 634 674 694 775 714 755 734 
996 976 795 774 835 754 815 794 834 
833 813 814 955 855 854 875 995 975 
895 915 933 1015 934 1035 914 954 1055 
974 1075 994 1014 1095 1175 1136 1216 1155 
1135 1195 1194 1115 1154 1114 1235 1173 1174 
1255 1234 1193 1295 1275 1315 1335 1254 1274 
1375 1314 1294 1395 1273 1415 1354 1334 1394 
1333 1353 1393 1374 1373 1434 1414 1596 1475 
1495 1433 1515 1413 1454 1494 1453 1535 1474 
1514 1575 1534 1555 1554 1595 1615 1574 15 
1655 136 1635 14 35 1654 55 75 95 
54 34 94 156 115 74 135 176 114 
215 196 276 296 195 275 315 255 295 
235 375 354 274 374 314 313 395 294 
333 415 312 394 353 414 373 435 332 
455 454 475 393 434 495 433 636 413 
453 494 555 474 534 515 533 595 514 
615 554 574 736 655 635 796 735 418 
876 1257 1277 936 1317 956 1016 1357 1337 
1297 1377 1036 916 896 1076 935 1397 1056 
1417 1096 1457 1116 1437 1156 1477 1497 1157 
1176 1537 1196 1517 1577 1215 1557 1236 1276 
1597 1617 1256 1637 1316 1296 1657 1356 1336 
17 1214 37 1396 57 1376 77 97 1436 
1416 1456 1476 1355 117 137 177 1516 157 
1496 1536 197 217 1435 1455 237 1556 277 
297 1616 1576 317 1636 357 337 1656 397 
16 417 56 76 437 36 457 96 477 
376 116 517 257 497 236 537 216 557 
597 256 377 577 316 637 336 617 356 
335 677 657 697 396 355 334 717 737 
757 436 416 797 456 476 777 817 516 
857 837 496 536 897 535 917 556 576 
957 937 596 616 997 1037 1017 656 198 
1077 696 676 1057 278 575 298 1097 716 
1177 1117 756 856 1137 816 776 1237 836 
1217 399 419 438 398 478 459 439 458 
479 498 518 499 538 519 558 539 579 
578 559 598 599 618 619 638 659 658 
639 698 679 699 678 739 718 719 738 
758 778 759 779 819 799 798 818 839 
879 859 838 858 899 919 898 878 959 
918 938 939 1019 958 978 999 979 998 
1039 1018 1059 1038 1079 1099 1058 1078 1119 
1098 1139 1118 1159 1179 1138 1219 1199 1239 
1158 1178 1198 1259 1218 1238 1279 1278 1299 
1258 1319 1298 1359 1339 1318 1379 1399 1338 
1358 1378 1419 1418 1439 1398 1459 1438 1479 
1458 1519 1478 1499 1498 1518 1539 1559 1579 
1538 1599 1558 1578 1598 1638 1618 1639 1619 
1658 1659 19 18 39 59 58 38 98 
79 877 78 99 138 118 119 977 139 
178 158 159 218 179 238 199 258 239 
219 1197 318 259 279 358 299 319 338 
378 379 359 339 2398 2399 2400 2401 2404 
2403 2405 2402 2406 2407 2408 2409 2410 2413 
2411 2412 2416 2415 2414 2417 2420 2421 2418 
2419 2422 2427 2424 2425 2423 2426 2430 2431 
2428 2429 2433 2432 2434 2435 2438 2436 2439 
2437 2440 2442 2441 2443 2445 2447 2446 2444 
2450 2448 2449 2451 2455 2454 2453 2452 2458 
2457 2459 2456 2462 2460 2463 2461 2464 2466 
2465 2467 2469 2470 2471 2468 2472 2473 2475 
2474 2476 2478 2480 2481 2477 2479 2482 2483 
2484 2485 2488 2487 2486 2489 2492 2493 2491 
2490 2497 2496 2495 2494 2500 2498 2499 2501 
2505 2503 2502 2504 2507 2506 2508 2509 2512 
2510 2511 2513 2514 2515 2516 2517 2521 2519 
2518 2520 2523 2524 2522 2525 2527 2526 2528 
2529 2530 2531 2532 2533 2538 2539 2537 2535 
2534 2536 2542 2541 2543 2540 2547 2546 2544 
2545 2550 2551 2549 2548 2552 2553 2555 2554 
2558 2556 2557 2559 2560 2561 2562 2563 
FIELD FieldData 7
r 3 2798 float
-0.5375 -0.4875 0 -0.5125 -0.4625 0 -0.5125 -0.4875 0 
-0.5375 -0.4625 0 -0.487805 -0.4875 0 -0.463415 -0.4625 0 
-0.487805 -0.4625 0 -0.463415 -0.4875 0 -0.414634 -0.4875 0 
-0.414634 -0.4625 0 -0.439024 -0.4625 0 -0.439024 -0.4875 0 
-0.365854 -0.4625 0 -0.390244 -0.4625 0 -0.365854 -0.4875 0 
-0.390244 -0.4875 0 -0.317073 -0.4875 0 -0.317073 -0.4625 0 
-0.341463 -0.4625 0 -0.341463 -0.4875 0 -0.292683 -0.4875 0 
-0.268293 -0.4875 0 -0.268293 -0.4625 0 -0.292683 -0.4625 0 
-0.219512 -0.4625 0 -0.243902 -0.4625 0 -0.243902 -0.4875 0 
-0.219512 -0.4875 0 -0.170732 -0.4625 0 -0.170732 -0.4875 0 
-0.195122 -0.4875 0 -0.195122 -0.4625 0 -0.121951 -0.4625 0 
-0.146341 -0.4875 0 -0.121951 -0.4875 0 -0.146341 -0.4625 0 
-0.097561 -0.4625 0 -0.0731707 -0.4625 0 -0.097561 -0.4875 0 
-0.0731707 -0.4875 0 -0.0487805 -0.4875 0 -0.0243903 -0.4875 0 
-0.0487805 -0.4625 0 -0.0243903 -0.4625 0 -1.86265e-08 -0.4625 0 
-1.86265e-08 -0.4875 0 0.0243902 -0.4875 0 0.0487805 -0.4875 0 
0.0487805 -0.4625 0 0.0243902 -0.4625 0 0.097561 -0.4875 0 
0.0731707 -0.4875 0 0.0731707 -0.4625 0 0.097561 -0.4625 0 
0.146341 -0.4875 0 0.121951 -0.4625 0 0.146341 -0.4625 0 
0.121951 -0.4875 0 0.170732 -0.4875 0 0.195122 -0.4875 0 
0.170732 -0.4625 0 0.195122 -0.4625 0 0.219512 -0.4875 0 
0.219512 -0.4625 0 0.243902 -0.4875 0 0.243902 -0.4625 0 
0.292683 -0.4625 0 0.292683 -0.4875 0 0.268293 -0.4875 0 
0.268293 -0.4625 0 0.317073 -0.4625 0 0.317073 -0.4875 0 
0.341463 -0.4875 0 0.341463 -0.4625 0 0.390244 -0.4875 0 
0.390244 -0.4625 0 0.365854 -0.4625 0 0.365854 -0.4875 0 
0.439024 -0.4625 0 0.414634 -0.4875 0 0.439024 -0.4875 0 
0.414634 -0.4625 0 0.487805 -0.4625 0 0.463415 -0.4625 0 
0.487805 -0.4875 0 0.463415 -0.4875 0 0.5125 -0.4625 0 
0.5375 -0.4875 0 0.5375 -0.4625 0 0.5125 -0.4875 0 
-0.5375 -0.4375 0 -0.5375 -0.4125 0 -0.5125 -0.4375 0 
-0.5125 -0.4125 0 -0.489229 -0.435457 0 -0.490084 -0.406567 0 
-0.467749 -0.412703 0 -0.465775 -0.437822 0 -0.424327 -0.413086 0 
-0.446238 -0.405792 0 -0.40104 -0.410093 0 -0.443088 -0.435417 0 
-0.41933 -0.438146 0 -0.354016 -0.40874 0 -0.372183 -0.43745 0 
-0.39581 -0.43654 0 -0.377404 -0.412173 0 -0.327834 -0.435811 0 
-0.331685 -0.408188 0 -0.306584 -0.435757 0 -0.349488 -0.435822 0 
-0.309734 -0.407374 0 -0.288191 -0.406777 0 -0.263692 -0.437239 0 
-0.265986 -0.409989 0 -0.2856 -0.434956 0 -0.219179 -0.412483 0 
-0.243155 -0.407757 0 -0.241853 -0.434849 0 -0.219238 -0.437789 0 
-0.151463 -0.412161 0 -0.195414 -0.437359 0 -0.195358 -0.411295 0 
-0.15154 -0.437954 0 -0.173205 -0.404792 0 -0.173665 -0.434026 0 
-0.129089 -0.409135 0 -0.128124 -0.436323 0 -0.106667 -0.409876 0 
-0.105741 -0.436352 0 -0.082369 -0.437599 0 -0.0588946 -0.412421 0 
-0.082886 -0.412449 0 -0.0582356 -0.437535 0 -0.0344514 -0.437142 0 
-0.0121238 -0.408962 0 -0.0116615 -0.436467 0 -0.0349881 -0.411434 0 
0.0331875 -0.437954 0 0.0104528 -0.435851 0 0.0104552 -0.409593 0 
0.0345072 -0.411318 0 0.0762845 -0.437934 0 0.0546856 -0.433597 0 
0.0558583 -0.403841 0 0.0774049 -0.412421 0 0.0997898 -0.436783 0 
0.122478 -0.436508 0 0.102285 -0.411435 0 0.144628 -0.435904 0 
0.126501 -0.409638 0 0.16764 -0.438275 0 0.150799 -0.410793 0 
0.190505 -0.434727 0 0.174854 -0.412561 0 0.194716 -0.402474 0 
0.211985 -0.437123 0 0.240627 -0.413713 0 0.236025 -0.437582 0 
0.214847 -0.412573 0 0.26043 -0.438166 0 0.285244 -0.437204 0 
0.292375 -0.412154 0 0.266825 -0.414783 0 0.334407 -0.438186 0 
0.308607 -0.437828 0 0.320049 -0.416336 0 0.343169 -0.410874 0 
0.358452 -0.438495 0 0.393135 -0.418464 0 0.365847 -0.416311 0 
0.385328 -0.439603 0 0.434124 -0.432237 0 0.41519 -0.412297 0 
0.413169 -0.439832 0 0.4469 -0.410444 0 0.469019 -0.422494 0 
0.456322 -0.441223 0 0.487919 -0.439584 0 0.490389 -0.412404 0 
0.5375 -0.4125 0 0.5125 -0.4375 0 0.5125 -0.4125 0 
0.5375 -0.4375 0 -0.5375 -0.3875 0 -0.5375 -0.3625 0 
-0.5125 -0.3875 0 -0.5125 -0.3625 0 -0.470752 -0.385639 0 
-0.490146 -0.375736 0 -0.464765 -0.357364 0 -0.448553 -0.378553 0 
-0.4238 -0.386794 0 -0.401814 -0.383172 0 -0.429152 -0.361973 0 
-0.408546 -0.353141 0 -0.36299 -0.359522 0 -0.353884 -0.381653 0 
-0.386949 -0.361575 0 -0.377696 -0.387437 0 -0.331384 -0.356641 0 
-0.308214 -0.379489 0 -0.307733 -0.352314 0 -0.331109 -0.381464 0 
-0.264232 -0.383436 0 -0.260381 -0.356364 0 -0.283708 -0.352973 0 
-0.286219 -0.378896 0 -0.235188 -0.355765 0 -0.219798 -0.387851 0 
-0.211291 -0.364003 0 -0.24174 -0.380125 0 -0.194677 -0.385676 0 
-0.155915 -0.356717 0 -0.180647 -0.368766 0 -0.160248 -0.383446 0 
-0.110974 -0.354418 0 -0.133209 -0.357635 0 -0.114011 -0.381995 0 
-0.137331 -0.384103 0 -0.0676489 -0.387054 0 -0.0661597 -0.360631 0 
-0.0912647 -0.386441 0 -0.0889246 -0.360565 0 -0.0212539 -0.383356 0 
-0.0204057 -0.356523 0 -0.0443275 -0.38627 0 -0.0431323 -0.359952 0 
0.0236607 -0.386357 0 0.0032065 -0.354503 0 0.0456441 -0.379071 0 
0.0251018 -0.359647 0 0.000956018 -0.381218 0 0.05757 -0.358649 0 
0.0945473 -0.388566 0 0.0816012 -0.358174 0 0.0722125 -0.383 0 
0.106122 -0.367831 0 0.138482 -0.36874 0 0.123069 -0.386638 0 
0.165865 -0.360928 0 0.17632 -0.38304 0 0.192844 -0.356372 0 
0.153219 -0.387865 0 0.201475 -0.37716 0 0.22481 -0.365562 0 
0.22454 -0.38967 0 0.249931 -0.39072 0 0.29538 -0.378029 0 
0.250753 -0.367476 0 0.274942 -0.391297 0 0.27468 -0.363951 0 
0.334198 -0.38558 0 0.311433 -0.394296 0 0.345684 -0.362119 0 
0.317964 -0.364653 0 0.398024 -0.361882 0 0.357859 -0.386967 0 
0.3745 -0.368055 0 0.380269 -0.395409 0 0.42998 -0.393825 0 
0.42086 -0.372202 0 0.40096 -0.388226 0 0.432722 -0.353526 0 
0.451719 -0.381025 0 0.469635 -0.395276 0 0.49003 -0.383637 0 
0.480875 -0.363635 0 0.457026 -0.359516 0 0.5375 -0.3875 0 
0.5125 -0.3625 0 0.5375 -0.3625 0 0.5125 -0.3875 0 
-0.5375 -0.3375 0 -0.5125 -0.3375 0 -0.5375 -0.3125 0 
-0.5125 -0.3125 0 -0.487065 -0.349173 0 -0.476546 -0.305694 0 
-0.464051 -0.329594 0 -0.490224 -0.323571 0 -0.424326 -0.328002 0 
-0.444684 -0.313407 0 -0.443395 -0.343774 0 -0.411101 -0.305359 0 
-0.376691 -0.335916 0 -0.360904 -0.318161 0 -0.385313 -0.30646 0 
-0.399198 -0.329674 0 -0.334571 -0.318657 0 -0.34722 -0.341247 0 
-0.315283 -0.329819 0 -0.301746 -0.310006 0 -0.256392 -0.332794 0 
-0.285714 -0.329645 0 -0.268335 -0.311873 0 -0.228226 -0.333675 0 
-0.202144 -0.343495 0 -0.20748 -0.318302 0 -0.238384 -0.312307 0 
-0.183557 -0.316951 0 -0.178841 -0.343903 0 -0.159261 -0.328485 0 
-0.162534 -0.302353 0 -0.136482 -0.331789 0 -0.137616 -0.305549 0 
-0.114538 -0.325686 0 -0.0944526 -0.305088 0 -0.0713116 -0.308551 0 
-0.0701257 -0.334309 0 -0.092831 -0.332823 0 -0.0465728 -0.308272 0 
-0.0469415 -0.333905 0 -0.0207846 -0.306118 0 -0.0236787 -0.330593 0 
0.021563 -0.323804 0 0.000344122 -0.330057 0 0.0376985 -0.341216 0 