# vtk DataFile Version 4.0
vtk output
ASCII
DATASET POLYDATA
FIELD FieldData 4
domain 1 3 string
domain_min:-20|-15
domain_max:20|15
cell_size:0.05

variables 1 2 string
dt:0.000372678
T:0.150945

constants 1 10 string
xsize:2
ysize:1
csize:0.05
dx:0.0238095
h:0.025
rho0:1000
mass:0.566894
g:1|0
c:13.4164
CFL:0.2

functions 1 8 string
time:T=(T+dt)
continuity:rho_dot=((-(rho*sph_D00(v,mass,rho,Wp52220)))+(((0.1*c)*h)*sph_L00(rho,mass,rho,Wp52220)))
irho:rho=(rho+int1((rho_dot,dt))
EOS:p=(((c^2)*(rho-rho0))+10000)
euler:a=if((gid,(0*v),(((-((1/rho)*sph_G11(p,mass,rho,Wp52220)))+(0.01*sph_L00(v,mass,rho,Wp52220)))+g))
vel:v=(v+int1((a,dt))
pos:r=(r+int1((v,dt))
new_dt:dt=(CFL*min((sqrt(((h/fmax(magnitude((a)))),(h/c)))

POINTS 2798 float
-0.5125 -0.4625 0 -0.5125 -0.4875 0 -0.5375 -0.4625 0 
-0.5375 -0.4875 0 -0.487805 -0.4875 0 -0.463415 -0.4875 0 
-0.463415 -0.4625 0 -0.487805 -0.4625 0 -0.439024 -0.4875 0 
-0.414634 -0.4625 0 -0.414634 -0.4875 0 -0.439024 -0.4625 0 
-0.365854 -0.4625 0 -0.390244 -0.4625 0 -0.390244 -0.4875 0 
-0.365854 -0.4875 0 -0.317073 -0.4875 0 -0.341463 -0.4625 0 
-0.341463 -0.4875 0 -0.317073 -0.4625 0 -0.292683 -0.4625 0 
-0.268293 -0.4875 0 -0.292683 -0.4875 0 -0.268293 -0.4625 0 
-0.243902 -0.4625 0 -0.243902 -0.4875 0 -0.219512 -0.4625 0 
-0.219512 -0.4875 0 -0.195122 -0.4875 0 -0.195122 -0.4625 0 
-0.170732 -0.4875 0 -0.170732 -0.4625 0 -0.121951 -0.4625 0 
-0.146341 -0.4875 0 -0.146341 -0.4625 0 -0.121951 -0.4875 0 
-0.0731707 -0.4625 0 -0.097561 -0.4625 0 -0.097561 -0.4875 0 
-0.0731707 -0.4875 0 -0.0487805 -0.4625 0 -1.86265e-08 -0.4625 0 
-1.86265e-08 -0.4875 0 -0.0243903 -0.4625 0 -0.0243903 -0.4875 0 
-0.0487805 -0.4875 0 0.0243902 -0.4875 0 0.0487805 -0.4625 0 
0.0243902 -0.4625 0 0.0487805 -0.4875 0 0.097561 -0.4625 0 
0.0731707 -0.4875 0 0.0731707 -0.4625 0 0.097561 -0.4875 0 
0.146341 -0.4875 0 0.121951 -0.4875 0 0.121951 -0.4625 0 
0.146341 -0.4625 0 0.195122 -0.4875 0 0.170732 -0.4625 0 
0.170732 -0.4875 0 0.195122 -0.4625 0 0.219512 -0.4875 0 
0.243902 -0.4625 0 0.243902 -0.4875 0 0.219512 -0.4625 0 
0.268293 -0.4875 0 0.292683 -0.4875 0 0.292683 -0.4625 0 
0.268293 -0.4625 0 0.317073 -0.4875 0 0.341463 -0.4875 0 
0.341463 -0.4625 0 0.317073 -0.4625 0 0.365854 -0.4625 0 
0.365854 -0.4875 0 0.390244 -0.4625 0 0.390244 -0.4875 0 
0.439024 -0.4625 0 0.439024 -0.4875 0 0.414634 -0.4625 0 
0.414634 -0.4875 0 0.487805 -0.4625 0 0.487805 -0.4875 0 
0.463415 -0.4625 0 0.463415 -0.4875 0 0.5375 -0.4625 0 
0.5125 -0.4625 0 0.5375 -0.4875 0 0.5125 -0.4875 0 
-0.5375 -0.4125 0 -0.5375 -0.4375 0 -0.5125 -0.4125 0 
-0.5125 -0.4375 0 -0.463505 -0.437446 0 -0.487935 -0.412458 0 
-0.488017 -0.437509 0 -0.463379 -0.412476 0 -0.439053 -0.437485 0 
-0.414309 -0.412551 0 -0.414633 -0.437505 0 -0.438827 -0.41252 0 
-0.365273 -0.412617 0 -0.365785 -0.437538 0 -0.390215 -0.437525 0 
-0.389795 -0.412589 0 -0.340746 -0.412639 0 -0.341351 -0.43755 0 
-0.316218 -0.412658 0 -0.316913 -0.43756 0 -0.292473 -0.437569 0 
-0.267167 -0.412684 0 -0.291691 -0.412672 0 -0.268034 -0.437576 0 
-0.243594 -0.437582 0 -0.218137 -0.412697 0 -0.242648 -0.412692 0 
-0.219156 -0.437586 0 -0.193633 -0.412699 0 -0.169139 -0.412697 0 
-0.170283 -0.437588 0 -0.194718 -0.437588 0 -0.145849 -0.437587 0 
-0.144654 -0.412694 0 -0.121417 -0.437585 0 -0.12018 -0.412689 0 
-0.0969879 -0.437582 0 -0.071263 -0.412675 0 -0.0725606 -0.437578 0 
-0.0957158 -0.412683 0 -0.0223916 -0.412661 0 -0.0481359 -0.437575 0 
-0.0237143 -0.437572 0 -0.0468215 -0.412668 0 0.025117 -0.437568 0 
0.0264319 -0.412648 0 0.000703609 -0.43757 0 0.00202629 -0.412654 0 
0.0495252 -0.437569 0 0.0995728 -0.412636 0 0.0508249 -0.412643 0 
0.0983234 -0.437572 0 0.0752051 -0.412639 0 0.0739275 -0.43757 0 
0.147096 -0.437577 0 0.122713 -0.437574 0 0.123928 -0.412634 0 
0.148271 -0.412632 0 0.172603 -0.412632 0 0.195845 -0.437583 0 
0.196924 -0.412632 0 0.171473 -0.43758 0 0.221235 -0.412633 0 
0.245538 -0.412635 0 0.244574 -0.437589 0 0.220211 -0.437586 0 
0.268933 -0.437593 0 0.269833 -0.412639 0 0.294123 -0.412645 0 
0.29329 -0.437597 0 0.317647 -0.437601 0 0.342005 -0.437608 0 
0.342691 -0.412667 0 0.318408 -0.412654 0 0.391257 -0.412705 0 
0.390735 -0.437627 0 0.366367 -0.437617 0 0.366973 -0.412684 0 
0.439521 -0.437659 0 0.43985 -0.412755 0 0.415548 -0.412732 0 
0.415116 -0.437638 0 0.464132 -0.412742 0 0.463925 -0.437653 0 
0.488292 -0.437749 0 0.488304 -0.412723 0 0.5125 -0.4125 0 
0.5125 -0.4375 0 0.5375 -0.4375 0 0.5375 -0.4125 0 
-0.5375 -0.3875 0 -0.5125 -0.3625 0 -0.5375 -0.3625 0 
-0.5125 -0.3875 0 -0.463292 -0.387597 0 -0.487919 -0.38749 0 
-0.487923 -0.362569 0 -0.463279 -0.362784 0 -0.413974 -0.362944 0 
-0.414051 -0.38771 0 -0.438619 -0.362902 0 -0.43866 -0.387671 0 
-0.38945 -0.387758 0 -0.389341 -0.362999 0 -0.364847 -0.387795 0 
-0.364708 -0.363039 0 -0.34008 -0.363067 0 -0.315648 -0.387846 0 
-0.315458 -0.363089 0 -0.340245 -0.387823 0 -0.266238 -0.363103 0 
-0.291056 -0.387862 0 -0.266473 -0.387872 0 -0.290843 -0.3631 0 
-0.21734 -0.387873 0 -0.217066 -0.363084 0 -0.241901 -0.387875 0 
-0.241645 -0.363098 0 -0.192794 -0.387866 0 -0.192503 -0.363062 0 
-0.167956 -0.363035 0 -0.168261 -0.387853 0 -0.143427 -0.363003 0 
-0.143744 -0.387838 0 -0.118916 -0.362967 0 -0.119243 -0.387819 0 
-0.0699472 -0.362889 0 -0.0947573 -0.387799 0 -0.0944224 -0.362929 0 
-0.0702882 -0.387777 0 -0.04549 -0.36285 0 -0.0213988 -0.387733 0 
-0.0458352 -0.387755 0 -0.0210508 -0.362811 0 0.0274237 -0.387693 0 
0.00302088 -0.387713 0 0.027773 -0.362737 0 0.00337012 -0.362773 0 
0.0765247 -0.362671 0 0.0761787 -0.387659 0 0.0521577 -0.362703 0 
0.0518096 -0.387675 0 0.149186 -0.38762 0 0.100531 -0.387644 0 
0.100874 -0.362641 0 0.125206 -0.362613 0 0.124867 -0.387631 0 
0.149521 -0.362587 0 0.17382 -0.362564 0 0.197778 -0.387601 0 
0.198102 -0.362543 0 0.17349 -0.387609 0 0.222368 -0.362524 0 
0.246312 -0.38759 0 0.222052 -0.387595 0 0.246619 -0.362508 0 
0.270559 -0.387589 0 0.295074 -0.362488 0 0.270854 -0.362496 0 
0.294795 -0.387591 0 0.31928 -0.362485 0 0.343472 -0.362489 0 
0.343237 -0.387609 0 0.31902 -0.387597 0 0.367447 -0.387628 0 
0.391651 -0.387653 0 0.36765 -0.362501 0 0.391815 -0.362521 0 
0.415852 -0.387683 0 0.415968 -0.362543 0 0.440052 -0.387696 0 
0.440113 -0.362535 0 0.488321 -0.387549 0 0.464219 -0.387633 0 
0.488309 -0.362327 0 0.46423 -0.36243 0 0.5375 -0.3875 0 
0.5375 -0.3625 0 0.5125 -0.3875 0 0.5125 -0.3625 0 
-0.5375 -0.3125 0 -0.5125 -0.3375 0 -0.5125 -0.3125 0 
-0.5375 -0.3375 0 -0.463291 -0.337976 0 -0.487929 -0.337643 0 
-0.487934 -0.312703 0 -0.463313 -0.313155 0 -0.414017 -0.313445 0 
-0.438631 -0.338145 0 -0.438665 -0.313384 0 -0.413982 -0.338196 0 
-0.364733 -0.313561 0 -0.364702 -0.338296 0 -0.389377 -0.313506 0 
-0.389342 -0.338252 0 -0.340063 -0.338322 0 -0.340083 -0.313587 0 
-0.315431 -0.338343 0 -0.315439 -0.313608 0 -0.266169 -0.313602 0 
-0.290804 -0.338351 0 -0.266188 -0.338347 0 -0.290799 -0.313614 0 
-0.241552 -0.313576 0 -0.216951 -0.313537 0 -0.241583 -0.338332 0 
-0.216995 -0.338305 0 -0.167806 -0.313425 0 -0.192422 -0.33827 0 
-0.192368 -0.313486 0 -0.167868 -0.338226 0 -0.143333 -0.338177 0 
-0.118818 -0.338123 0 -0.118745 -0.313284 0 -0.143264 -0.313357 0 
-0.0943218 -0.338066 0 -0.0942465 -0.313208 0 -0.0697693 -0.313131 0 
-0.0698452 -0.338008 0 -0.0453876 -0.33795 0 -0.0208754 -0.312979 0 
-0.0453123 -0.313054 0 -0.0209492 -0.337894 0 0.0278717 -0.337785 0 
0.0279407 -0.312835 0 0.00347058 -0.337838 0 0.00354213 -0.312906 0 
0.0766825 -0.312704 0 0.0523207 -0.312768 0 0.076619 -0.337686 0 
0.0522543 -0.337734 0 0.101026 -0.312643 0 0.125295 -0.337598 0 
0.125352 -0.312585 0 0.149607 -0.337558 0 0.100966 -0.337641 0 
0.149661 -0.312531 0 0.173903 -0.337521 0 0.198228 -0.312433 0 
0.173953 -0.31248 0 0.198183 -0.337487 0 0.246732 -0.312348 0 
0.222446 -0.337456 0 0.246695 -0.337428 0 0.222488 -0.312389 0 
0.270928 -0.337402 0 0.270961 -0.31231 0 0.295147 -0.337381 0 
0.295175 -0.312276 0 0.343537 -0.337355 0 0.343558 -0.312222 0 
0.319374 -0.312247 0 0.31935 -0.337366 0 0.367724 -0.312207 0 
0.391873 -0.312198 0 0.391859 -0.337363 0 0.367707 -0.337355 0 
0.440119 -0.337338 0 0.440117 -0.312131 0 0.416001 -0.312188 0 
0.415996 -0.337371 0 0.464221 -0.337206 0 0.488305 -0.337114 0 
0.464216 -0.311985 0 0.488304 -0.31191 0 0.5375 -0.3375 0 
0.5375 -0.3125 0 0.5125 -0.3375 0 0.5125 -0.3125 0 
-0.5375 -0.2625 0 -0.5375 -0.2875 0 -0.5125 -0.2625 0 
-0.5125 -0.2875 0 -0.487942 -0.287746 0 -0.463342 -0.288313 0 
-0.487951 -0.262762 0 -0.463383 -0.263445 0 -0.414068 -0.288698 0 
-0.414134 -0.263949 0 -0.438711 -0.288617 0 -0.438774 -0.263834 0 
-0.389426 -0.288762 0 -0.364831 -0.264119 0 -0.364776 -0.288835 0 
-0.389488 -0.264019 0 -0.315452 -0.288887 0 -0.34015 -0.264165 0 
-0.340113 -0.288866 0 -0.315463 -0.264187 0 -0.290795 -0.288892 0 
-0.266145 -0.288871 0 -0.266112 -0.264162 0 -0.290784 -0.264192 0 
-0.241457 -0.264108 0 -0.241512 -0.288832 0 -0.216825 -0.264035 0 
-0.216896 -0.288777 0 -0.192216 -0.263944 0 -0.192302 -0.288708 0 
-0.167634 -0.263841 0 -0.16773 -0.288628 0 -0.143182 -0.28854 0 
-0.143079 -0.26373 0 -0.118658 -0.288446 0 -0.118551 -0.263615 0 
-0.0940486 -0.263496 0 -0.06968 -0.288252 0 -0.0941576 -0.28835 0 
-0.0695713 -0.263378 0 -0.0452242 -0.288156 0 -0.0451173 -0.263261 0 
-0.0207894 -0.288062 0 -0.0206853 -0.263147 0 0.00372581 -0.263038 0 
0.00362525 -0.28797 0 0.0280207 -0.287882 0 0.0281171 -0.262932 0 
0.0767553 -0.287718 0 0.0523971 -0.287798 0 0.0524893 -0.262831 0 
0.0768431 -0.262734 0 0.101095 -0.287641 0 0.101179 -0.262642 0 
0.149723 -0.2875 0 0.125497 -0.262555 0 0.125418 -0.287569 0 
0.149798 -0.262471 0 0.198284 -0.287374 0 0.198352 -0.262316 0 
0.174083 -0.262392 0 0.174012 -0.287435 0 0.246842 -0.262174 0 
0.246781 -0.28726 0 0.222541 -0.287315 0 0.222605 -0.262243 0 
0.271063 -0.26211 0 0.295269 -0.26205 0 0.295214 -0.287163 0 
0.271005 -0.287209 0 0.343583 -0.287082 0 0.319406 -0.28712 0 
0.343627 -0.261941 0 0.319457 -0.261993 0 0.391889 -0.287027 0 
[...]
POINT_DATA 2798
SCALARS id float
LOOKUP_TABLE default
2621 2620 2601 2600 2640 2642 2643 2641 2644 
2647 2646 2645 2651 2649 2648 2650 2654 2653 
2652 2655 2657 2658 2656 2659 2661 2660 2663 
2662 2664 2665 2666 2667 2671 2668 2669 2670 
2675 2673 2672 2674 2677 2681 2680 2679 2678 
2676 2682 2685 2683 2684 2689 2686 2687 2688 
2692 2690 2691 2693 2696 2695 2694 2697 2698 
2701 2700 2699 2702 2704 2705 2703 2706 2708 
2709 2707 2711 2710 2713 2712 2717 2716 2715 
2714 2721 2720 2719 2718 2743 2723 2742 2722 
2603 2602 2623 2622 1678 1661 1660 1679 1696 
1715 1714 1697 1751 1750 1732 1733 1769 1768 
1787 1786 1804 1823 1805 1822 1840 1859 1841 
1858 1877 1895 1894 1876 1912 1913 1930 1931 
1948 1967 1966 1949 2003 1984 2002 1985 2038 
2039 2020 2021 2056 2093 2057 2092 2075 2074 
2128 2110 2111 2129 2147 2164 2165 2146 2183 
2201 2200 2182 2218 2219 2237 2236 2254 2272 
2273 2255 2309 2308 2290 2291 2344 2345 2327 
2326 2363 2362 2380 2381 2725 2724 2744 2745 
2604 2625 2605 2624 1680 1662 1663 1681 1717 
1716 1699 1698 1734 1735 1752 1753 1771 1788 
1789 1770 1825 1806 1824 1807 1860 1861 1842 
1843 1878 1879 1897 1896 1915 1914 1933 1932 
1969 1950 1951 1968 1987 2004 1986 2005 2040 
2022 2041 2023 2077 2076 2059 2058 2130 2094 
2095 2113 2112 2131 2149 2166 2167 2148 2185 
2202 2184 2203 2220 2239 2221 2238 2257 2275 
2274 2256 2292 2310 2293 2311 2328 2329 2346 
2347 2382 2364 2383 2365 2746 2747 2726 2727 
2607 2626 2627 2606 1682 1664 1665 1683 1719 
1700 1701 1718 1755 1754 1737 1736 1772 1773 
1790 1791 1827 1808 1826 1809 1845 1863 1844 
1862 1899 1880 1881 1898 1916 1934 1935 1917 
1952 1953 1971 1970 1988 2007 1989 2006 2042 
2043 2024 2025 2079 2061 2078 2060 2097 2114 
2115 2132 2096 2133 2150 2169 2151 2168 2205 
2186 2204 2187 2222 2223 2240 2241 2276 2277 
2259 2258 2295 2313 2312 2294 2348 2349 2331 
2330 2366 2384 2367 2385 2748 2749 2728 2729 
2609 2608 2629 2628 1666 1684 1667 1685 1720 
1721 1702 1703 1738 1757 1756 1739 1792 1775 
1774 1793 1810 1828 1829 1811 1847 1846 1865 
1864 1883 1882 1901 1900 1918 1919 1936 1937 
1955 1972 1954 1973 1990 1991 2008 2009 2027 
2026 2044 2045 2080 2062 2063 2081 2098 2099 
2134 2117 2116 2135 2170 2171 2153 2152 2207 
2206 2188 2189 2225 2243 2242 2224 2278 2260 
2279 2261 2314 2315 2296 2297 2350 2332 2333 
2351 2386 2369 2368 2387 2751 2750 2730 2731 
2630 2631 2611 2610 1668 1686 1669 1687 1704 
1723 1722 1705 1758 1740 1741 1759 1794 1776 
1795 1777 1812 1813 1831 1830 1866 1867 1849 
1848 1884 1903 1902 1885 1939 1921 1920 1938 
1956 1975 1957 1974 2011 1993 1992 2010 2029 
2046 2028 2047 2064 2065 2082 2083 2136 2118 
2119 2137 2101 2100 2173 2172 2154 2155 2209 
2208 2191 2190 2244 2227 2245 2226 2263 2280 
2281 2262 2317 2316 2298 2299 2352 2334 2335 
2353 2370 2388 2371 2389 2753 2733 2732 2752 
2612 2633 2632 2613 1671 1689 1670 1688 1725 
1707 1706 1724 1743 1742 1760 1761 1778 1797 
1796 1779 1832 1815 1814 1833 1851 1869 1868 
1850 1887 1904 1886 1905 1922 1923 1940 1941 
1959 1958 1976 1977 2013 1995 2012 1994 2049 
2031 2048 2030 2084 2067 2085 2066 2102 2103 
2121 2120 2138 2157 2174 2175 2156 2139 2193 
2210 2211 2192 2228 2247 2246 2229 2264 2265 
2282 2283 2300 2319 2301 2318 2355 2354 2336 
2337 2391 2390 2372 2373 2735 2754 2734 2755 
2615 2614 2635 2634 1673 1691 1672 1690 1709 
1708 1727 1726 1745 1763 1744 1762 1799 1781 
1780 1798 1817 1835 1834 1816 1870 1871 1852 
1853 1906 1907 1888 1889 1943 1925 1924 1942 
1960 1979 1961 1978 2015 1997 1996 2014 2051 
2050 2032 2033 2068 2086 2069 2087 2105 2104 
2123 2122 2177 2141 2140 2158 2159 2176 2194 
2212 2213 2195 2248 2249 2231 2230 2266 2285 
2284 2267 2320 2302 2321 2303 2339 2356 2357 
2338 2392 2393 2374 2375 2736 2757 2737 2756 
2636 2637 2616 2617 1675 1674 1693 1692 1711 
1729 1728 1710 1746 1765 1764 1747 1800 1801 
1783 1782 1836 1819 1818 1837 1855 1854 1873 
1872 1909 1890 1908 1891 1945 1927 1944 1926 
1963 1962 1980 1981 2016 1999 2017 1998 2035 
2034 2053 2052 2070 2089 2088 2071 2106 2125 
2107 2124 2142 2161 2160 2143 2178 2197 2179 
2214 2196 2250 2215 2232 2233 2268 2251 2286 
2287 2269 2323 2322 2305 2304 2340 2358 2341 
2359 2395 2377 2376 2394 2739 2758 2759 2738 
2566 2564 2567 2565 2569 2571 2570 2568 2574 
2573 2575 2572 2579 2578 2577 2576 2582 2580 
2583 2581 2585 2584 2587 2586 2590 2589 2588 
2591 2592 2595 2593 2594 2597 2596 2599 2598 
2638 2639 2618 2619 1694 1677 1695 1676 1730 
1712 1713 1731 1766 300 1749 1748 340 1802 
1785 1784 1767 320 1803 1838 1820 1821 1874 
1839 1857 1856 1875 1910 1892 1893 1929 1928 
1911 1946 1947 1982 1965 1964 2000 1983 2001 
2018 2019 2054 2036 2037 2090 2055 2072 2073 
2091 2108 2109 2126 2144 2162 2127 2145 2163 
2198 2180 2181 2216 2234 2217 2199 2235 2253 
2271 2252 2270 2324 2288 2289 2306 2307 2360 
2343 2325 2342 2396 2378 2379 2361 2741 2760 
2740 2761 2764 2762 2763 2765 2766 2769 2768 
2767 2772 2771 2773 2770 2777 2776 2775 2774 
2779 2780 2778 2781 2784 2785 2783 2782 2788 
2789 2786 2787 2790 2791 2792 2793 2796 2794 
2797 2795 1440 1421 1460 1401 1441 1500 1480 
1461 1520 1481 1501 1540 1521 1560 1580 1541 
1561 1620 1601 1600 1581 1641 1621 0 1640 
21 1 40 20 61 60 41 80 120 
100 101 81 140 160 141 121 181 180 
200 161 220 240 201 221 260 280 241 
261 281 301 321 341 380 361 360 381 
420 400 401 440 441 421 460 480 461 
500 481 521 501 540 520 580 561 560 
541 601 581 620 600 641 660 621 640 
680 661 700 681 720 721 740 701 761 
741 780 800 760 781 840 820 801 821 
841 880 860 901 861 920 881 900 940 
960 941 921 1000 961 980 981 1040 1001 
2397 1020 1061 1041 1080 1060 1100 1120 1101 
1081 1140 1121 1141 1160 1180 1200 1161 1181 
1220 1240 1201 1221 1260 1280 1261 1241 1300 
1340 1320 1301 1281 1321 1380 1341 1360 1361 
1381 1400 1420 1423 1422 1403 1402 1462 1443 
1463 1442 1502 1482 1503 1483 1522 1543 1542 
1523 1582 1583 1562 1563 1623 1602 1622 1603 
1642 1643 2 22 3 23 43 63 62 
42 103 102 83 82 123 122 143 142 
162 163 183 182 223 203 222 202 243 
263 242 262 283 303 282 302 322 342 
343 323 382 363 362 402 383 403 423 
422 443 442 483 463 462 482 502 522 
503 523 562 543 563 542 582 603 602 
583 643 623 642 622 683 682 663 662 
703 702 723 722 742 743 763 762 783 
803 782 802 842 843 822 823 862 863 
883 882 902 923 922 903 942 963 962 
943 982 983 1002 1003 1023 1042 1043 1022 
1021 1063 1062 1102 1083 1082 1103 1143 1122 
1123 1142 1163 1183 1182 1162 1223 1203 1202 
1222 1262 1243 1242 1263 1303 1302 1282 1283 
1323 1343 1342 1322 1363 1362 1382 1383 1404 
1405 1424 1425 1465 1445 1444 1464 1484 1485 
1504 1505 1525 1524 1545 1544 1565 1584 1585 
1564 1604 1624 1625 1605 1645 1644 5 4 
24 44 45 25 65 84 105 104 85 
64 124 145 144 125 164 184 165 185 
205 204 224 225 264 265 245 244 284 
304 305 285 324 325 344 345 364 365 
384 385 424 425 405 404 444 445 465 
464 485 484 505 504 525 524 545 565 
544 564 584 585 605 604 625 624 644 
645 684 665 685 664 704 725 705 724 
765 764 744 745 805 784 804 785 824 
825 845 844 864 885 884 865 904 924 
925 905 965 964 944 945 1004 984 1005 
985 1044 1045 1024 1025 1085 1084 1064 1065 
1105 1104 1124 1144 1125 1145 1165 1164 1185 
1184 1224 1225 1204 1205 1265 1244 1264 1245 
1304 1285 1284 1305 1325 1345 1344 1324 1385 
1365 1364 1384 1406 1426 1407 1427 1467 1446 
1466 1447 1487 1506 1507 1486 1527 1546 1547 
1526 1567 1587 1586 1566 1627 1606 1607 1626 
6 7 1646 1647 27 66 46 67 47 
26 107 86 106 87 146 127 126 147 
186 167 187 166 206 227 207 226 247 
246 267 266 286 306 307 287 347 327 
346 326 386 387 366 367 427 406 426 
407 446 447 486 467 466 487 526 506 
527 507 547 546 567 566 606 587 586 
607 626 627 646 647 667 666 687 686 
727 706 726 707 746 747 767 766 786 
787 806 807 847 846 827 826 866 887 
867 886 926 907 927 906 967 947 946 
966 987 1007 1006 986 1026 1046 1027 1047 
1066 1067 1087 1086 1146 1107 1127 1147 1126 
1106 1187 1166 1186 1167 1226 1227 1206 1207 
1266 1246 1267 1247 1306 1287 1307 1286 1327 
1347 1326 1346 1367 1386 1387 1366 1428 1429 
1409 1408 1468 1448 1469 1449 1488 1489 1509 
1508 1549 1548 1528 1529 1568 1569 1589 1588 
1608 1609 1629 1628 1648 9 8 1649 69 
68 28 48 49 29 108 89 109 88 
128 148 129 149 168 188 189 169 209 
228 229 208 249 269 268 248 289 288 
308 309 349 348 329 328 388 369 389 
368 409 428 408 429 468 449 448 469 
488 489 509 529 528 508 548 569 549 
568 609 608 588 589 648 649 629 628 
689 669 668 688 708 728 729 709 768 
769 749 748 808 809 788 789 849 848 
828 829 868 888 869 889 929 928 909 
908 948 949 968 969 988 989 1008 1009 
1028 1029 1049 1048 1069 1068 1089 1088 1129 
1108 1149 1128 1109 1148 1189 1169 1168 1188 
1229 1208 1209 1228 1249 1269 1248 1268 1308 
1288 1289 1309 1329 1328 1349 1348 1388 1369 
1368 1389 1430 1410 1431 1411 1471 1450 1451 
1470 1510 1511 1491 1490 1530 1531 1551 1550 
1590 1570 1591 1571 1631 1630 1611 1610 11 
1650 10 1651 30 71 51 70 50 31 
111 91 90 110 130 150 131 151 190 
171 191 170 231 210 211 230 251 270 
271 250 291 290 310 311 351 330 350 
331 391 390 370 371 430 431 410 411 
450 451 470 471 510 491 531 530 490 
511 551 571 550 570 591 590 611 610 
650 651 630 631 670 691 690 671 730 
731 710 711 771 770 750 751 810 790 
811 791 851 831 850 830 890 871 891 
870 910 931 930 911 951 970 950 971 
1011 991 990 1010 1031 1030 1051 1050 1070 
1071 1090 1091 1130 1131 1150 1151 1110 1111 
1171 1191 1190 1170 1231 1211 1210 1230 1270 
1251 1271 1250 1310 1291 1311 1290 1351 1350 
1331 1330 1371 1370 1391 1390 1432 1413 1412 
1433 1473 1452 1453 1472 1492 1513 1512 1493 
1533 1552 1553 1532 1573 1572 1593 1592 1613 
1633 1632 1612 1652 1653 13 12 32 73 
52 72 53 33 113 93 112 92 132 
153 152 133 192 193 173 172 212 233 
213 232 253 252 272 273 293 313 292 
312 352 333 353 332 392 372 373 393 
412 433 413 432 452 472 453 473 492 
512 533 513 532 493 573 572 552 553 
613 592 593 612 633 632 652 653 693 
672 692 673 713 732 733 712 772 753 
773 752 813 812 792 793 852 833 853 
832 872 873 892 893 932 933 913 912 
953 972 973 952 993 992 1013 1012 1032 
1052 1033 1053 1073 1092 1072 1093 1113 1153 
1152 1132 1133 1112 1173 1193 1172 1192 1212 
1233 1232 1213 1273 1252 1253 1272 1293 1312 
1292 1313 1332 1352 1333 1353 1392 1372 1393 
1373 1434 1415 1435 1414 1474 1455 1454 1475 
1515 1494 1514 1495 1555 1535 1554 1534 1575 
1595 1594 1574 1634 1614 1635 1615 1655 15 
1654 14 34 74 54 75 55 35 114 
115 94 95 134 155 135 154 174 195 
175 194 235 215 214 234 275 274 254 
255 314 294 315 295 355 335 334 354 
374 395 375 394 414 415 435 434 454 
455 475 474 494 534 495 515 514 535 
554 555 575 574 595 614 594 615 634 
654 635 655 675 694 674 695 714 734 
735 715 755 774 775 754 795 815 814 
794 835 834 854 855 875 874 894 895 
935 914 934 915 955 954 975 974 995 
994 1015 1014 1035 1054 1055 1034 1074 1075 
1095 1094 1115 1114 1154 1155 1135 1134 1175 
1195 1194 1174 1235 1214 1215 1234 1254 1275 
1255 1274 1295 1315 1314 1294 1354 1335 1334 
1355 1394 1375 1395 1374 1416 1436 1437 1417 
1477 1456 1476 1457 1517 1497 1516 1496 1537 
1556 1536 1557 1597 1596 1576 1577 1617 1616 
1636 1657 1637 1656 36 16 17 37 77 
57 76 56 96 97 116 117 156 137 
157 136 197 176 196 177 236 237 217 
216 276 277 257 256 297 316 317 296 
337 336 356 357 397 377 376 396 436 
437 416 417 456 497 476 477 457 496 
536 516 537 517 576 577 556 557 616 
617 596 597 636 656 637 657 677 696 
676 697 737 736 717 716 777 776 757 
756 797 817 796 816 836 837 856 857 
877 896 897 876 937 936 916 917 957 
956 977 976 996 997 1017 1037 1016 1036 
1057 1056 1077 1116 1097 1117 1096 1076 1136 
1156 1157 1137 1176 1197 1196 1177 1236 1237 
1217 1216 1277 1257 1256 1276 1297 1316 1296 
1317 1357 1337 1336 1356 1396 1377 1397 1376 
1479 1418 1459 1438 1458 1499 1478 1519 1518 
1539 1559 1498 1558 1599 1579 1538 1578 1619 
1639 1598 1618 1659 1638 19 1658 38 18 
59 39 78 99 79 58 119 98 139 
118 158 159 179 138 199 178 198 219 
279 259 238 239 218 299 278 319 258 
298 359 318 339 338 358 399 379 378 
419 398 439 479 458 438 459 418 499 
498 478 519 539 518 559 538 558 579 
599 578 618 598 639 619 679 659 658 
638 699 698 739 719 678 759 779 738 
718 799 819 778 758 798 839 818 859 
838 858 899 879 919 898 878 939 938 
959 979 918 958 998 978 999 1019 1039 
1038 1059 1018 1079 1078 1099 1058 1119 1139 
1118 1098 1179 1158 1138 1159 1178 1199 1198 
1219 1239 1238 1259 1218 1278 1299 1258 1279 
1298 1319 1339 1318 1359 1379 1358 1399 1338 
1378 1419 1439 1398 2398 2401 2399 2400 2402 
2405 2403 2404 2408 2406 2407 2409 2411 2412 
2413 2410 2415 2416 2414 2417 2419 2418 2421 
2420 2425 2422 2427 2424 2423 2426 2430 2428 
2429 2431 2432 2433 2434 2435 2438 2439 2437 
2436 2440 2441 2443 2442 2445 2444 2447 2446 
2448 2451 2450 2449 2452 2454 2455 2453 2456 
2458 2459 2457 2463 2461 2460 2462 2467 2464 
2465 2466 2468 2471 2470 2469 2473 2472 2474 
2475 2476 2478 2481 2480 2477 2479 2482 2483 
2484 2485 2487 2488 2486 2489 2490 2491 2492 
2493 2497 2496 2495 2494 2500 2499 2501 2498 
2504 2505 2502 2503 2509 2508 2507 2506 2511 
2510 2513 2512 2514 2515 2516 2517 2521 2520 
2518 2519 2523 2524 2525 2522 2526 2529 2528 
2527 2530 2531 2532 2533 2534 2535 2536 2537 
2538 2539 2542 2541 2543 2540 2544 2545 2546 
2547 2548 2549 2550 2551 2555 2552 2553 2554 
2558 2556 2557 2559 2560 2561 2562 2563 
FIELD FieldData 7
r 3 2798 float
-0.5125 -0.4625 0 -0.5125 -0.4875 0 -0.5375 -0.4625 0 
-0.5375 -0.4875 0 -0.487805 -0.4875 0 -0.463415 -0.4875 0 
-0.463415 -0.4625 0 -0.487805 -0.4625 0 -0.439024 -0.4875 0 
-0.414634 -0.4625 0 -0.414634 -0.4875 0 -0.439024 -0.4625 0 
-0.365854 -0.4625 0 -0.390244 -0.4625 0 -0.390244 -0.4875 0 
-0.365854 -0.4875 0 -0.317073 -0.4875 0 -0.341463 -0.4625 0 
-0.341463 -0.4875 0 -0.317073 -0.4625 0 -0.292683 -0.4625 0 
-0.268293 -0.4875 0 -0.292683 -0.4875 0 -0.268293 -0.4625 0 
-0.243902 -0.4625 0 -0.243902 -0.4875 0 -0.219512 -0.4625 0 
-0.219512 -0.4875 0 -0.195122 -0.4875 0 -0.195122 -0.4625 0 
-0.170732 -0.4875 0 -0.170732 -0.4625 0 -0.121951 -0.4625 0 
-0.146341 -0.4875 0 -0.146341 -0.4625 0 -0.121951 -0.4875 0 
-0.0731707 -0.4625 0 -0.097561 -0.4625 0 -0.097561 -0.4875 0 
-0.0731707 -0.4875 0 -0.0487805 -0.4625 0 -1.86265e-08 -0.4625 0 
-1.86265e-08 -0.4875 0 -0.0243903 -0.4625 0 -0.0243903 -0.4875 0 
-0.0487805 -0.4875 0 0.0243902 -0.4875 0 0.0487805 -0.4625 0 
0.0243902 -0.4625 0 0.0487805 -0.4875 0 0.097561 -0.4625 0 
0.0731707 -0.4875 0 0.0731707 -0.4625 0 0.097561 -0.4875 0 
0.146341 -0.4875 0 0.121951 -0.4875 0 0.121951 -0.4625 0 
0.146341 -0.4625 0 0.195122 -0.4875 0 0.170732 -0.4625 0 
0.170732 -0.4875 0 0.195122 -0.4625 0 0.219512 -0.4875 0 
0.243902 -0.4625 0 0.243902 -0.4875 0 0.219512 -0.4625 0 
0.268293 -0.4875 0 0.292683 -0.4875 0 0.292683 -0.4625 0 
0.268293 -0.4625 0 0.317073 -0.4875 0 0.341463 -0.4875 0 
0.341463 -0.4625 0 0.317073 -0.4625 0 0.365854 -0.4625 0 
0.365854 -0.4875 0 0.390244 -0.4625 0 0.390244 -0.4875 0 
0.439024 -0.4625 0 0.439024 -0.4875 0 0.414634 -0.4625 0 
0.414634 -0.4875 0 0.487805 -0.4625 0 0.487805 -0.4875 0 
0.463415 -0.4625 0 0.463415 -0.4875 0 0.5375 -0.4625 0 
0.5125 -0.4625 0 0.5375 -0.4875 0 0.5125 -0.4875 0 
-0.5375 -0.4125 0 -0.5375 -0.4375 0 -0.5125 -0.4125 0 
-0.5125 -0.4375 0 -0.463505 -0.437446 0 -0.487935 -0.412458 0 
-0.488017 -0.437509 0 -0.463379 -0.412476 0 -0.439053 -0.437485 0 
-0.414309 -0.412551 0 -0.414633 -0.437505 0 -0.438827 -0.41252 0 
-0.365273 -0.412617 0 -0.365785 -0.437538 0 -0.390215 -0.437525 0 
-0.389795 -0.412589 0 -0.340746 -0.412639 0 -0.341351 -0.43755 0 
-0.316218 -0.412658 0 -0.316913 -0.43756 0 -0.292473 -0.437569 0 
-0.267167 -0.412684 0 -0.291691 -0.412672 0 -0.268034 -0.437576 0 
-0.243594 -0.437582 0 -0.218137 -0.412697 0 -0.242648 -0.412692 0 
-0.219156 -0.437586 0 -0.193633 -0.412699 0 -0.169139 -0.412697 0 
-0.170283 -0.437588 0 -0.194718 -0.437588 0 -0.145849 -0.437587 0 
-0.144654 -0.412694 0 -0.121417 -0.437585 0 -0.12018 -0.412689 0 
-0.0969879 -0.437582 0 -0.071263 -0.412675 0 -0.0725606 -0.437578 0 
-0.0957158 -0.412683 0 -0.0223916 -0.412661 0 -0.0481359 -0.437575 0 
-0.0237143 -0.437572 0 -0.0468215 -0.412668 0 0.025117 -0.437568 0 
0.0264319 -0.412648 0 0.000703609 -0.43757 0 0.00202629 -0.412654 0 
0.0495252 -0.437569 0 0.0995728 -0.412636 0 0.0508249 -0.412643 0 
0.0983234 -0.437572 0 0.0752051 -0.412639 0 0.0739275 -0.43757 0 
0.147096 -0.437577 0 0.122713 -0.437574 0 0.123928 -0.412634 0 
0.148271 -0.412632 0 0.172603 -0.412632 0 0.195845 -0.437583 0 
0.196924 -0.412632 0 0.171473 -0.43758 0 0.221235 -0.412633 0 
0.245538 -0.412635 0 0.244574 -0.437589 0 0.220211 -0.437586 0 
0.268933 -0.437593 0 0.269833 -0.412639 0 0.294123 -0.412645 0 
0.29329 -0.437597 0 0.317647 -0.437601 0 0.342005 -0.437608 0 
0.342691 -0.412667 0 0.318408 -0.412654 0 0.391257 -0.412705 0 
0.390735 -0.437627 0 0.366367 -0.437617 0 0.366973 -0.412684 0 
0.439521 -0.437659 0 0.43985 -0.412755 0 0.415548 -0.412732 0 
0.415116 -0.437638 0 0.464132 -0.412742 0 0.463925 -0.437653 0 
0.488292 -0.437749 0 0.488304 -0.412723 0 0.5125 -0.4125 0 
0.5125 -0.4375 0 0.5375 -0.4375 0 0.5375 -0.4125 0 
-0.5375 -0.3875 0 -0.5125 -0.3625 0 -0.5375 -0.3625 0 
-0.5125 -0.3875 0 -0.463292 -0.387597 0 -0.487919 -0.38749 0 
-0.487923 -0.362569 0 -0.463279 -0.362784 0 -0.413974 -0.362944 0 
-0.414051 -0.38771 0 -0.438619 -0.362902 0 -0.43866 -0.387671 0 
-0.38945 -0.387758 0 -0.389341 -0.362999 0 -0.364847 -0.387795 0 
-0.364708 -0.363039 0 -0.34008 -0.363067 0 -0.315648 -0.387846 0 
-0.315458 -0.363089 0 -0.340245 -0.387823 0 -0.266238 -0.363103 0 
-0.291056 -0.387862 0 -0.266473 -0.387872 0 -0.290843 -0.3631 0 
-0.21734 -0.387873 0 -0.217066 -0.363084 0 -0.241901 -0.387875 0 
-0.241645 -0.363098 0 -0.192794 -0.387866 0 -0.192503 -0.363062 0 
-0.167956 -0.363035 0 -0.168261 -0.387853 0 -0.143427 -0.363003 0 
-0.143744 -0.387838 0 -0.118916 -0.362967 0 -0.119243 -0.387819 0 
-0.0699472 -0.362889 0 -0.0947573 -0.387799 0 -0.0944224 -0.362929 0 
-0.0702882 -0.387777 0 -0.04549 -0.36285 0 -0.0213988 -0.387733 0 
-0.0458352 -0.387755 0 -0.0210508 -0.362811 0 0.0274237 -0.387693 0 
0.00302088 -0.387713 0 0.027773 -0.362737 0 0.00337012 -0.362773 0 
0.0765247 -0.362671 0 0.0761787 -0.387659 0 0.0521577 -0.362703 0 
0.0518096 -0.387675 0 0.149186 -0.38762 0 0.100531 -0.387644 0 
0.100874 -0.362641 0 0.125206 -0.362613 0 0.124867 -0.387631 0 
0.149521 -0.362587 0 0.17382 -0.362564 0 0.197778 -0.387601 0 
0.198102 -0.362543 0 0.17349 -0.387609 0 0.222368 -0.362524 0 
0.246312 -0.38759 0 0.222052 -0.387595 0 0.246619 -0.362508 0 
0.270559 -0.387589 0 0.295074 -0.362488 0 0.270854 -0.362496 0 
0.294795 -0.387591 0 0.31928 -0.362485 0 0.343472 -0.362489 0 
0.343237 -0.387609 0 0.31902 -0.387597 0 0.367447 -0.387628 0 
0.391651 -0.387653 0 0.36765 -0.362501 0 0.391815 -0.362521 0 
0.415852 -0.387683 0 0.415968 -0.362543 0 0.440052 -0.387696 0 
0.440113 -0.362535 0 0.488321 -0.387549 0 0.464219 -0.387633 0 
0.488309 -0.362327 0 0.46423 -0.36243 0 0.5375 -0.3875 0 
0.5375 -0.3625 0 0.5125 -0.3875 0 0.5125 -0.3625 0 
-0.5375 -0.3125 0 -0.5125 -0.3375 0 -0.5125 -0.3125 0 
-0.5375 -0.3375 0 -0.463291 -0.337976 0 -0.487929 -0.337643 0 
-0.487934 -0.312703 0 -0.463313 -0.313155 0 -0.414017 -0.313445 0 
-0.438631 -0.338145 0 -0.438665 -0.313384 0 -0.413982 -0.338196 0 
-0.364733 -0.313561 0 -0.364702 -0.338296 0 -0.389377 -0.313506 0 
-0.389342 -0.338252 0 -0.340063 -0.338322 0 -0.340083 -0.313587 0 
-0.315431 -0.338343 0 -0.315439 -0.313608 0 -0.266169 -0.313602 0 
-0.290804 -0.338351 0 -0.266188 -0.338347 0 -0.290799 -0.313614 0 
-0.241552 -0.313576 0 -0.216951 -0.313537 0 -0.241583 -0.338332 0 
-0.216995 -0.338305 0 -0.167806 -0.313425 0 -0.192422 -0.33827 0 
-0.192368 -0.313486 0 -0.167868 -0.338226 0 -0.143333 -0.338177 0 
-0.118818 -0.338123 0 -0.118745 -0.313284 0 -0.143264 -0.313357 0 
-0.0943218 -0.338066 0 -0.0942465 -0.313208 0 -0.0697693 -0.313131 0 
-0.0698452 -0.338008 0 -0.0453876 -0.33795 0 -0.0208754 -0.312979 0 
-0.0453123 -0.313054 0 -0.0209492 -0.337894 0 0.0278717 -0.337785 0 