# vtk DataFile Version 4.0
vtk output
ASCII
DATASET POLYDATA
FIELD FieldData 4
domain 1 3 string
domain_min:-20|-15
domain_max:20|15
cell_size:0.05

variables 1 2 string
dt:0.000372678
T:0.60374

constants 1 10 string
xsize:2
ysize:1
csize:0.05
dx:0.0238095
h:0.025
rho0:1000
mass:0.566894
g:1|0
c:13.4164
CFL:0.2

functions 1 8 string
time:T=(T+dt)
continuity:rho_dot=((-(rho*sph_D00(v,mass,rho,Wp52220)))+(((0.1*c)*h)*sph_L00(rho,mass,rho,Wp52220)))
irho:rho=(rho+int1((rho_dot,dt))
EOS:p=(((c^2)*(rho-rho0))+10000)
euler:a=if((gid,(0*v),(((-((1/rho)*sph_G11(p,mass,rho,Wp52220)))+(0.01*sph_L00(v,mass,rho,Wp52220)))+g))
vel:v=(v+int1((a,dt))
pos:r=(r+int1((v,dt))
new_dt:dt=(CFL*min((sqrt(((h/fmax(magnitude((a)))),(h/c)))

POINTS 2798 float
-0.5125 -0.4875 0 -0.5125 -0.4625 0 -0.5375 -0.4875 0 
-0.5375 -0.4625 0 -0.487805 -0.4875 0 -0.487805 -0.4625 0 
-0.463415 -0.4875 0 -0.463415 -0.4625 0 -0.439024 -0.4875 0 
-0.414634 -0.4625 0 -0.439024 -0.4625 0 -0.414634 -0.4875 0 
-0.390244 -0.4875 0 -0.365854 -0.4625 0 -0.365854 -0.4875 0 
-0.390244 -0.4625 0 -0.341463 -0.4875 0 -0.317073 -0.4625 0 
-0.341463 -0.4625 0 -0.317073 -0.4875 0 -0.292683 -0.4625 0 
-0.268293 -0.4875 0 -0.268293 -0.4625 0 -0.292683 -0.4875 0 
-0.219512 -0.4875 0 -0.243902 -0.4875 0 -0.243902 -0.4625 0 
-0.219512 -0.4625 0 -0.170732 -0.4875 0 -0.195122 -0.4625 0 
-0.195122 -0.4875 0 -0.170732 -0.4625 0 -0.121951 -0.4875 0 
-0.121951 -0.4625 0 -0.146341 -0.4875 0 -0.146341 -0.4625 0 
-0.0731707 -0.4875 0 -0.097561 -0.4625 0 -0.0731707 -0.4625 0 
-0.097561 -0.4875 0 -1.86265e-08 -0.4875 0 -0.0243903 -0.4625 0 
-0.0487805 -0.4625 0 -1.86265e-08 -0.4625 0 -0.0243903 -0.4875 0 
-0.0487805 -0.4875 0 0.0243902 -0.4875 0 0.0243902 -0.4625 0 
0.0487805 -0.4625 0 0.0487805 -0.4875 0 0.0731707 -0.4875 0 
0.097561 -0.4875 0 0.0731707 -0.4625 0 0.097561 -0.4625 0 
0.146341 -0.4875 0 0.146341 -0.4625 0 0.121951 -0.4625 0 
0.121951 -0.4875 0 0.195122 -0.4625 0 0.170732 -0.4875 0 
0.170732 -0.4625 0 0.195122 -0.4875 0 0.219512 -0.4875 0 
0.243902 -0.4625 0 0.219512 -0.4625 0 0.243902 -0.4875 0 
0.268293 -0.4875 0 0.292683 -0.4875 0 0.268293 -0.4625 0 
0.292683 -0.4625 0 0.317073 -0.4625 0 0.341463 -0.4625 0 
0.317073 -0.4875 0 0.341463 -0.4875 0 0.365854 -0.4875 0 
0.390244 -0.4875 0 0.390244 -0.4625 0 0.365854 -0.4625 0 
0.414634 -0.4875 0 0.414634 -0.4625 0 0.439024 -0.4875 0 
0.439024 -0.4625 0 0.463415 -0.4875 0 0.487805 -0.4625 0 
0.487805 -0.4875 0 0.463415 -0.4625 0 0.5375 -0.4625 0 
0.5125 -0.4875 0 0.5125 -0.4625 0 0.5375 -0.4875 0 
-0.5375 -0.4375 0 -0.5125 -0.4375 0 -0.5125 -0.4125 0 
-0.5375 -0.4125 0 -0.464128 -0.410016 0 -0.463362 -0.436539 0 
-0.487581 -0.438037 0 -0.487786 -0.413462 0 -0.415647 -0.436565 0 
-0.417426 -0.410073 0 -0.439459 -0.437502 0 -0.440738 -0.412067 0 
-0.393134 -0.435858 0 -0.373413 -0.407972 0 -0.371113 -0.436078 0 
-0.351391 -0.409673 0 -0.395101 -0.40804 0 -0.325673 -0.436682 0 
-0.328795 -0.409913 0 -0.302503 -0.437092 0 -0.348553 -0.436708 0 
-0.305837 -0.410787 0 -0.282797 -0.410874 0 -0.255467 -0.437423 0 
-0.25949 -0.411699 0 -0.27913 -0.437099 0 -0.234972 -0.413799 0 
-0.230793 -0.43813 0 -0.209796 -0.413793 0 -0.205779 -0.437968 0 
-0.154774 -0.438334 0 -0.158287 -0.414875 0 -0.180431 -0.43835 0 
-0.184196 -0.414683 0 -0.103424 -0.438344 0 -0.106433 -0.414873 0 
-0.132362 -0.414623 0 -0.129119 -0.438232 0 -0.0540477 -0.415244 0 
-0.0521014 -0.438402 0 -0.0803624 -0.414854 0 -0.0777553 -0.438272 0 
-0.00165678 -0.414071 0 -0.000724569 -0.437895 0 -0.0276881 -0.415278 0 
-0.0262785 -0.438459 0 0.0494052 -0.437601 0 0.0245161 -0.438099 0 
0.0241249 -0.414319 0 0.0495198 -0.413201 0 0.0739751 -0.437767 0 
0.0998416 -0.413239 0 0.0746842 -0.41344 0 0.0985754 -0.437704 0 
0.149357 -0.413554 0 0.124689 -0.41265 0 0.12297 -0.437522 0 
0.147483 -0.437891 0 0.174345 -0.413679 0 0.172371 -0.437903 0 
0.197252 -0.437828 0 0.199568 -0.413643 0 0.224973 -0.413659 0 
0.246993 -0.438181 0 0.221993 -0.437784 0 0.296806 -0.437653 0 
0.272202 -0.437947 0 0.25031 -0.414352 0 0.27556 -0.413653 0 
0.344414 -0.437357 0 0.32073 -0.437237 0 0.347472 -0.411985 0 
0.30021 -0.412617 0 0.324025 -0.411475 0 0.393233 -0.437924 0 
0.36864 -0.437866 0 0.371449 -0.413244 0 0.395576 -0.41287 0 
0.439523 -0.436671 0 0.416908 -0.436564 0 0.418398 -0.409294 0 
0.440327 -0.409985 0 0.488113 -0.438326 0 0.4636 -0.413302 0 
0.463209 -0.437969 0 0.488075 -0.414038 0 0.5375 -0.4125 0 
0.5125 -0.4375 0 0.5125 -0.4125 0 0.5375 -0.4375 0 
-0.5125 -0.3875 0 -0.5375 -0.3625 0 -0.5375 -0.3875 0 
-0.5125 -0.3625 0 -0.488213 -0.363229 0 -0.488008 -0.388544 0 
-0.464962 -0.382653 0 -0.465888 -0.354371 0 -0.442098 -0.386218 0 
-0.4208 -0.356198 0 -0.443479 -0.359994 0 -0.419131 -0.383244 0 
-0.376221 -0.351133 0 -0.354502 -0.354379 0 -0.396809 -0.380527 0 
-0.35322 -0.382223 0 -0.398359 -0.353414 0 -0.374958 -0.37946 0 
-0.332096 -0.356221 0 -0.309074 -0.357749 0 -0.307841 -0.384277 0 
-0.330754 -0.383026 0 -0.261948 -0.385573 0 -0.26306 -0.359198 0 
-0.284957 -0.384283 0 -0.286087 -0.357645 0 -0.213912 -0.365672 0 
-0.212528 -0.389757 0 -0.239004 -0.364848 0 -0.237673 -0.389371 0 
-0.161007 -0.391543 0 -0.186919 -0.391095 0 -0.162523 -0.368206 0 
-0.188399 -0.36747 0 -0.109052 -0.39155 0 -0.110565 -0.368202 0 
-0.136518 -0.367738 0 -0.135045 -0.39117 0 -0.0561478 -0.392542 0 
-0.0827903 -0.391843 0 -0.0576754 -0.369952 0 -0.0843099 -0.368915 0 
-0.00331663 -0.390581 0 -0.0310117 -0.369698 0 -0.0295068 -0.39242 0 
-0.00461206 -0.367257 0 0.0228758 -0.390968 0 0.02185 -0.368034 0 
0.0488934 -0.389438 0 0.0485322 -0.366388 0 0.0749196 -0.389785 0 
0.075233 -0.366862 0 0.100985 -0.389473 0 0.128784 -0.364762 0 
0.102075 -0.366541 0 0.126746 -0.388304 0 0.177077 -0.389523 0 
0.154841 -0.365727 0 0.180495 -0.365478 0 0.151931 -0.389391 0 
0.22812 -0.389927 0 0.205741 -0.366239 0 0.231241 -0.366109 0 
0.20245 -0.389929 0 0.281429 -0.364844 0 0.256419 -0.366349 0 
0.253467 -0.390439 0 0.278627 -0.389281 0 0.327134 -0.385526 0 
0.305956 -0.36231 0 0.303306 -0.387487 0 0.329695 -0.359542 0 
0.3994 -0.359555 0 0.376497 -0.362983 0 0.353029 -0.360787 0 
0.37417 -0.388337 0 0.397727 -0.38678 0 0.35045 -0.386423 0 
0.419906 -0.381248 0 0.441487 -0.382809 0 0.421408 -0.353512 0 
0.443165 -0.354907 0 0.488181 -0.389583 0 0.488213 -0.364928 0 
0.464628 -0.362112 0 0.464053 -0.388108 0 0.5375 -0.3875 0 
0.5375 -0.3625 0 0.5125 -0.3625 0 0.5125 -0.3875 0 
-0.5375 -0.3375 0 -0.5125 -0.3375 0 -0.5125 -0.3125 0 
-0.5375 -0.3125 0 -0.488542 -0.310921 0 -0.466854 -0.325098 0 
-0.488435 -0.337391 0 -0.445003 -0.333359 0 -0.44596 -0.30617 0 
-0.423604 -0.301981 0 -0.422443 -0.329109 0 -0.355433 -0.326322 0 
-0.377479 -0.323472 0 -0.399926 -0.326552 0 -0.333066 -0.329599 0 
-0.309837 -0.331422 0 -0.310331 -0.305455 0 -0.333663 -0.302959 0 
-0.263087 -0.332987 0 -0.286505 -0.331334 0 -0.286478 -0.305548 0 
-0.26258 -0.307233 0 -0.238299 -0.316223 0 -0.239033 -0.340398 0 
-0.213875 -0.341541 0 -0.213002 -0.317448 0 -0.161641 -0.321732 0 
-0.188457 -0.34384 0 -0.162529 -0.34493 0 -0.187568 -0.32025 0 
-0.136433 -0.344314 0 -0.110414 -0.34483 0 -0.135335 -0.321035 0 
-0.109149 -0.321573 0 -0.0575449 -0.347365 0 -0.084147 -0.346008 0 
-0.0811526 -0.300567 0 -0.0543892 -0.302292 0 -0.0561266 -0.324817 0 
-0.082759 -0.323187 0 -0.00236972 -0.321143 0 -0.0308248 -0.347042 0 
-0.027665 -0.301884 0 -0.00410433 -0.344129 0 -0.0293394 -0.324512 0 
0.0494916 -0.343753 0 0.0240689 -0.322824 0 0.0225511 -0.34541 0 
0.025359 -0.300279 0 0.0511154 -0.321262 0 0.0764266 -0.344357 0 
0.0781717 -0.321988 0 0.130904 -0.341948 0 0.107452 -0.300047 0 
0.10557 -0.32206 0 0.103577 -0.344167 0 0.133103 -0.319482 0 
0.157672 -0.342724 0 0.186774 -0.318081 0 0.183886 -0.34159 0 
0.16009 -0.320117 0 0.238244 -0.318033 0 0.20927 -0.342456 0 
0.234694 -0.342122 0 0.212637 -0.318808 0 0.287138 -0.314579 0 
0.262979 -0.317048 0 0.284232 -0.340015 0 0.259671 -0.341936 0 
0.308206 -0.336646 0 0.331477 -0.333498 0 0.332978 -0.307029 0 
0.310295 -0.310057 0 0.354732 -0.335044 0 0.355961 -0.309145 0 
0.378971 -0.310698 0 0.378028 -0.337093 0 0.40034 -0.331561 0 
0.445031 -0.32655 0 0.401061 -0.30338 0 0.423225 -0.300493 0 
0.422612 -0.326799 0 0.465487 -0.334752 0 0.488231 -0.340169 0 
0.48861 -0.314995 0 0.467608 -0.305672 0 0.5125 -0.3125 0 
0.5375 -0.3125 0 0.5125 -0.3375 0 0.5375 -0.3375 0 
-0.5375 -0.2875 0 -0.5375 -0.2625 0 -0.5125 -0.2875 0 
-0.5125 -0.2625 0 -0.465727 -0.264789 0 -0.466903 -0.295124 0 
-0.487914 -0.258731 0 -0.48834 -0.284396 0 -0.40105 -0.299588 0 
-0.446089 -0.278061 0 -0.40141 -0.272615 0 -0.424087 -0.274707 0 
-0.356517 -0.271075 0 -0.378501 -0.296403 0 -0.378879 -0.269216 0 
-0.356109 -0.298464 0 -0.333785 -0.276418 0 -0.309189 -0.25474 0 
-0.310233 -0.279871 0 -0.333175 -0.250394 0 -0.285944 -0.28044 0 
-0.261478 -0.281994 0 -0.28473 -0.255578 0 -0.260195 -0.257182 0 
-0.235386 -0.269073 0 -0.237086 -0.292463 0 -0.210011 -0.269057 0 
-0.211496 -0.293439 0 -0.186169 -0.296759 0 -0.185012 -0.273018 0 
-0.157352 -0.252627 0 -0.159331 -0.275578 0 -0.16012 -0.298716 0 
-0.107611 -0.298368 0 -0.107175 -0.27476 0 -0.133078 -0.27452 0 
-0.104484 -0.25127 0 -0.133742 -0.297807 0 -0.130765 -0.25124 0 
-0.0512397 -0.257098 0 -0.054988 -0.279573 0 -0.0813032 -0.277545 0 
-0.0782494 -0.254778 0 -0.0282583 -0.279414 0 -0.0237053 -0.257539 0 
-0.00128315 -0.297914 0 -0.00035074 -0.275256 0 0.0295883 -0.254758 0 
0.026401 -0.27776 0 0.00416742 -0.252475 0 0.0560834 -0.254536 0 
0.0800165 -0.299859 0 0.0831292 -0.255304 0 0.0534963 -0.2769 0 
0.0806835 -0.277744 0 0.0525031 -0.299009 0 0.109773 -0.255698 0 
0.137122 -0.251944 0 0.108045 -0.277986 0 0.134839 -0.297015 0 
0.13534 -0.274624 0 0.163259 -0.252698 0 0.162645 -0.275294 0 
0.188982 -0.271652 0 0.161789 -0.297662 0 0.188678 -0.295004 0 
0.214928 -0.295388 0 0.222692 -0.251604 0 0.240654 -0.293964 0 
0.243464 -0.271254 0 0.215271 -0.27247 0 0.29158 -0.260011 0 
0.269645 -0.26686 0 0.266128 -0.292116 0 0.289887 -0.28823 0 
[...]
POINT_DATA 2798
SCALARS id float
LOOKUP_TABLE default
2620 2621 2600 2601 2640 2641 2642 2643 2644 
2647 2645 2646 2648 2651 2650 2649 2652 2655 
2653 2654 2657 2658 2659 2656 2662 2660 2661 
2663 2666 2665 2664 2667 2670 2671 2668 2669 
2674 2673 2675 2672 2680 2679 2677 2681 2678 
2676 2682 2683 2685 2684 2686 2688 2687 2689 
2692 2693 2691 2690 2697 2694 2695 2696 2698 
2701 2699 2700 2702 2704 2703 2705 2707 2709 
2706 2708 2710 2712 2713 2711 2714 2715 2716 
2717 2718 2721 2720 2719 2743 2722 2723 2742 
2602 2622 2623 2603 1679 1678 1660 1661 1714 
1715 1696 1697 1732 1751 1750 1769 1733 1786 
1787 1804 1768 1805 1823 1840 1841 1822 1859 
1858 1877 1876 1912 1913 1894 1895 1948 1949 
1931 1930 1985 1984 1967 1966 2021 2020 2003 
2002 2056 2038 2039 2057 2074 2093 2075 2092 
2129 2111 2110 2128 2147 2146 2164 2165 2183 
2200 2182 2236 2218 2201 2219 2272 2254 2273 
2237 2255 2308 2290 2291 2309 2344 2326 2327 
2345 2380 2363 2362 2381 2745 2724 2725 2744 
2624 2605 2604 2625 1663 1662 1680 1681 1698 
1717 1699 1716 1753 1771 1734 1770 1735 1752 
1789 1807 1806 1788 1842 1843 1824 1825 1879 
1878 1861 1860 1914 1896 1915 1897 1950 1951 
1933 1932 1986 1968 1987 1969 2022 2005 2004 
2023 2040 2041 2058 2059 2076 2077 2094 2113 
2095 2112 2148 2131 2149 2130 2184 2167 2185 
2166 2221 2203 2202 2220 2256 2239 2238 2257 
2311 2293 2275 2292 2310 2274 2328 2346 2329 
2347 2382 2383 2365 2364 2746 2747 2727 2726 
2606 2626 2627 2607 1665 1682 1664 1700 1701 
1719 1718 1772 1754 1736 1790 1808 1809 1791 
1844 1826 1827 1845 1863 1862 1880 1881 1917 
1898 1916 1899 1934 1952 1935 1953 1988 1970 
1972 1990 1989 1971 2025 2006 2008 2024 2007 
2060 2043 2042 2044 2061 2078 2079 2114 2098 
2097 2096 2115 2132 2151 2150 2133 2187 2168 
2186 2169 2223 2205 2222 2204 2240 2258 2259 
2241 2276 2277 2295 2294 2312 2348 2313 2331 
2330 2366 2384 2385 2367 2729 2749 2728 2748 
2608 2609 2628 2629 1684 1683 1667 1666 1737 
1702 1738 1720 1774 1755 1756 1773 1792 1811 
1810 1793 1828 1846 1829 1847 1865 1864 1883 
1882 1900 1901 1920 1919 1918 1954 1955 1937 
1956 1936 1938 1992 1991 1973 1974 2009 2010 
2026 2027 2046 2045 2028 2064 2080 2082 2063 
2081 2062 2100 2118 2099 2116 2117 2136 2135 
2153 2134 2152 2170 2172 2188 2189 2171 2225 
2207 2206 2224 2242 2260 2261 2243 2296 2278 
2279 2297 2314 2332 2350 2349 2386 2368 2387 
2750 2751 2730 2731 2631 2630 2610 2611 1668 
1685 1669 1686 1739 1704 1740 1721 1722 1703 
1776 1758 1757 1775 1794 1813 1812 1830 1849 
1848 1831 1885 1866 1884 1867 1904 1903 1921 
1902 1922 1939 1957 1958 1940 1994 1976 1975 
2012 1993 2011 2030 2047 2048 2029 2083 2084 
2065 2066 2102 2101 2119 2103 2137 2138 2120 
2154 2156 2155 2173 2226 2191 2190 2209 2208 
2263 2227 2244 2245 2262 2280 2281 2298 2333 
2334 2335 2316 2315 2370 2369 2352 2388 2351 
2733 2752 2753 2732 2613 2612 2633 2632 1671 
1670 1687 1742 1724 1705 1741 1706 1723 1760 
1778 1777 1759 1795 1814 1796 1850 1833 1832 
1851 1886 1887 1868 1869 1870 1924 1906 1905 
1923 1959 1941 1942 1960 1995 1977 1978 2014 
1996 1997 2013 2015 2032 2049 2031 2068 2067 
2050 2085 2087 2086 2069 2104 2122 2105 2121 
2174 2157 2139 2140 2158 2175 2210 2193 2192 
2228 2246 2229 2299 2264 2300 2282 2317 2336 
2318 2389 2371 2354 2353 2390 2734 2735 2754 
2755 2615 2634 2614 2635 1673 1688 1672 1689 
1708 1726 1707 1725 1743 1744 1761 1762 1779 
1798 1816 1815 1780 1797 1835 1854 1834 1852 
1872 1853 1871 1888 1889 1890 1907 1925 1909 
1943 1908 1926 1945 1944 1961 1927 1979 1962 
1980 1998 1999 2016 1981 1982 2034 2051 2033 
2017 2053 2071 2088 2052 2070 2089 2123 2106 
2107 2124 2141 2159 2194 2195 2177 2176 2211 
2213 2247 2230 2212 2283 2284 2265 2248 2266 
2301 2337 2319 2372 2373 2355 2391 2736 2757 
2756 2737 2617 2637 2636 2616 1675 1691 1674 
1690 1728 1727 1709 1746 1745 1763 1764 1782 
1747 1783 1799 1781 1800 1817 1818 1767 1836 
1784 1801 1819 1731 1873 1749 1837 1855 1856 
1891 1785 80 1892 1874 1541 1820 160 1561 
120 1928 1910 1803 1963 1838 1964 1839 1946 
2000 180 1857 1911 1893 1821 2035 2054 2036 
1929 2018 2072 2125 340 2090 2143 2142 2160 
2178 2161 2231 2196 2232 2267 2285 2249 2214 
2250 2302 2303 2320 2338 2356 2392 2374 2739 
2759 2758 2738 2564 2567 2565 2566 2570 2571 
2568 2569 2574 2572 2575 2573 2579 2577 2578 
2576 2583 2582 2581 2580 2585 2587 2584 2586 
2591 2590 2589 2588 2595 2593 2594 2592 2597 
2599 2596 2598 2618 2619 2638 2639 1692 1710 
1677 1676 1693 1711 1694 1480 1695 1730 1729 
1500 1765 1440 1712 1748 1520 1766 1241 1560 
1540 1301 1713 1600 1321 1580 1620 1361 60 
20 40 1802 1521 100 1421 1640 1441 0 
1481 1461 1522 140 1542 1601 1502 1 1543 
1581 1641 1562 1621 21 200 220 1875 240 
280 300 320 181 260 1947 201 141 161 
162 2126 1965 2179 2108 2144 2198 2197 2215 
2216 2251 2339 2268 2233 2321 2357 2393 2760 
2740 2761 2741 2762 2765 2764 2763 2768 2769 
2766 2767 2771 2770 2773 2772 2777 2775 2774 
2776 2780 2778 2779 2781 2783 2782 2785 2784 
2789 2787 2786 2788 2792 2793 2790 2791 2796 
2795 2797 2794 860 2289 2361 761 701 1020 
2379 780 820 2397 721 880 1060 1080 900 
1120 1100 920 940 980 841 960 1140 1180 
881 1000 1160 861 1200 1001 1220 921 1240 
1040 1260 1041 981 1300 1280 1061 1081 1340 
1101 1320 1102 1360 1380 1121 1082 1122 1161 
1420 1400 1063 1141 1181 1162 1460 1142 1221 
1261 1182 1201 1202 1281 1222 1163 1262 1242 
1203 1341 1243 1282 1302 1381 1401 1342 1322 
1362 1343 1363 1382 1402 1383 1442 1422 1501 
1523 1482 1462 1483 1503 1544 1563 1582 41 
1602 1583 1564 1642 2 42 61 1622 121 
101 102 82 81 182 142 122 103 360 
2162 143 1983 2019 2001 2180 2037 2055 440 
2073 2234 2091 2322 2252 2287 2304 2286 2109 
2270 2375 2305 2394 2340 2323 2358 2163 2376 
2359 2306 2341 2324 2395 2360 2342 2217 2235 
640 680 2377 2199 2253 840 660 2396 2271 
2307 700 740 2325 720 2343 2378 800 760 
582 581 621 641 602 661 681 642 702 
662 703 643 682 762 722 781 801 742 
741 782 821 763 783 803 822 802 843 
901 823 862 842 882 961 941 902 923 
922 903 942 1002 963 962 943 1021 1062 
1022 1003 982 983 1043 1023 1042 1084 1044 
1103 1064 1083 1123 1104 1143 1164 1183 1124 
1144 1185 1204 1184 1223 1263 1244 1225 1224 
1264 1303 1304 1284 1283 1323 1344 1324 1384 
1365 1403 1364 1404 1423 1444 1443 1424 1463 
1464 1524 1484 1584 1545 1504 1565 1623 1604 
1603 1624 1643 3 22 23 63 62 83 
123 43 84 64 380 163 144 104 221 
420 400 241 460 222 261 2269 500 480 
242 520 281 301 321 341 282 2288 2127 
540 302 580 2145 560 342 2181 401 600 
362 421 402 441 620 501 462 442 481 
461 541 521 482 601 542 522 523 561 
544 543 562 524 563 584 622 583 564 
624 623 603 604 663 683 664 644 704 
685 723 684 743 724 745 744 725 764 
785 784 765 825 804 824 805 845 863 
883 865 844 864 904 884 885 905 924 
925 945 944 964 984 985 965 1004 1005 
1024 1025 1065 1045 1066 1085 1106 1105 1086 
1145 1126 1146 1125 1166 1165 1205 1206 1186 
1246 1245 1226 1266 1285 1286 1265 1305 1346 
1326 1325 1306 1345 1386 1366 1385 1405 1425 
1426 1406 1446 1465 1466 1485 1445 1525 1486 
1526 1505 1546 1566 1585 1586 1644 1605 1625 
5 24 1645 4 45 25 44 26 86 
124 105 65 85 164 145 183 202 184 
203 165 185 204 224 223 205 244 225 
262 243 283 264 263 361 304 322 381 
303 344 324 363 343 323 403 383 382 
364 424 443 423 404 422 483 464 463 
444 504 502 484 503 525 506 526 545 
546 565 566 585 606 625 605 586 665 
646 645 626 706 687 686 705 666 707 
727 726 746 786 766 787 767 747 826 
807 827 806 867 846 847 866 886 906 
887 907 946 947 927 926 986 966 967 
987 1007 1027 1026 1006 1046 1067 1068 1047 
1107 1088 1087 1108 1128 1147 1127 1148 1168 
1188 1187 1207 1208 1167 1227 1247 1248 1228 
1288 1267 1268 1287 1307 1308 1328 1327 1347 
1387 1388 1367 1368 1348 1428 1407 1408 1427 
1447 1448 1467 1468 1487 1527 1507 1506 1568 
1528 1567 1547 1548 1607 1588 1587 1606 6 
1646 1647 1627 1626 47 27 46 28 7 
66 67 87 126 107 125 106 146 147 
166 148 127 167 187 186 207 227 226 
206 245 265 284 246 266 286 285 305 
306 345 325 326 346 384 365 366 406 
405 385 386 425 426 446 465 445 466 
505 486 485 508 527 528 507 548 567 
547 568 588 587 608 607 647 627 628 
648 668 667 689 688 708 709 729 728 
749 748 769 788 768 809 808 829 828 
789 849 848 869 868 889 888 909 908 
949 929 928 948 988 989 968 969 1008 
1009 1029 1028 1048 1069 1049 1109 1110 1089 
1090 1130 1129 1149 1150 1210 1169 1170 1190 
1209 1189 1230 1250 1229 1249 1289 1269 1290 
1270 1330 1309 1329 1310 1349 1350 1390 1370 
1369 1389 1429 1430 1409 1449 1450 1469 1488 
1508 1509 1489 1570 1569 1549 1550 1529 1589 
1590 1608 1609 1629 1628 1648 1649 8 9 
29 30 69 48 49 68 109 89 88 
108 150 149 129 128 189 188 169 168 
208 209 228 229 247 249 268 267 248 
307 308 287 288 328 327 347 348 367 
368 387 388 428 407 408 448 447 427 
468 467 487 488 530 529 550 569 570 
590 549 589 609 630 610 650 629 649 
670 669 711 691 690 731 751 730 710 
750 771 791 770 790 810 831 830 811 
851 870 871 850 910 911 890 891 930 
951 950 931 970 990 991 971 1031 1010 
1030 1011 1050 1071 1070 1051 1112 1111 1091 
1131 1132 1152 1151 1192 1211 1191 1212 1171 
1172 1251 1252 1231 1232 1271 1291 1331 1311 
1371 1392 1391 1372 1351 1410 1411 1431 1471 
1470 1451 1491 1511 1490 1510 1530 1531 1551 
1572 1571 1610 1591 1611 1631 1651 1650 1630 
11 10 31 50 51 70 71 91 110 
90 111 131 130 151 170 171 191 190 
231 211 210 230 250 270 251 269 271 
309 290 310 289 330 329 350 349 390 
389 370 369 430 429 410 409 470 449 
469 450 509 510 489 490 551 532 553 
531 533 552 573 572 592 571 591 593 
611 632 612 631 671 673 672 653 651 
652 692 693 713 712 753 733 732 752 
793 772 773 792 812 833 832 813 853 
852 873 872 893 913 912 892 932 952 
953 933 972 973 992 993 1033 1013 1012 
1032 1053 1073 1052 1072 1093 1113 1092 1133 
1173 1153 1193 1213 1233 1253 1292 1272 1273 
1293 1353 1313 1332 1312 1333 1352 1373 1393 
1433 1432 1412 1413 1472 1473 1453 1452 1512 
1513 1492 1493 1532 1533 1573 1552 1553 1593 
1612 1613 1592 1652 1653 1632 1633 32 13 
12 33 52 72 73 53 113 92 93 
112 132 152 153 133 173 193 213 192 
172 212 232 233 252 253 293 273 272 
311 312 313 292 291 352 351 373 331 
332 391 392 371 372 432 411 433 412 
431 413 451 453 472 471 452 473 492 
512 491 511 534 554 575 555 574 594 
595 615 635 614 634 613 633 675 674 
654 655 695 694 715 714 735 734 754 
755 775 774 795 794 834 814 835 815 
854 875 874 855 894 915 895 914 934 
935 954 955 974 995 994 975 1034 1015 
1014 1035 1074 1054 1075 1055 1114 1095 1135 
1094 1115 1134 1155 1174 1175 1154 1195 1215 
1194 1214 1234 1255 1254 1235 1275 1274 1295 
1294 1315 1334 1355 1335 1354 1314 1394 1374 
1375 1395 1434 1435 1414 1415 1455 1475 1474 
1454 1495 1514 1535 1494 1515 1554 1574 1575 
1555 1534 1595 1614 1594 1615 1635 1654 1634 
1655 34 14 15 35 55 74 54 75 
135 95 94 115 114 154 174 155 175 
134 214 215 194 195 254 234 255 235 
294 274 295 275 334 335 333 314 315 
355 374 354 353 375 415 393 414 394 
454 455 435 434 495 494 475 474 515 
535 513 514 493 577 576 557 556 616 
617 597 596 636 637 657 656 677 676 
717 697 716 696 736 737 756 757 796 
776 797 777 837 836 817 816 877 876 
857 856 916 896 917 897 937 936 956 
957 977 976 996 997 1017 1036 1016 1037 
1057 1056 1077 1097 1076 1096 1116 1117 1137 
1136 1157 1156 1177 1176 1217 1197 1216 1196 
1236 1237 1257 1256 1277 1276 1296 1317 1316 
1297 1336 1357 1337 1356 1377 1376 1397 1396 
1417 1437 1416 1436 1457 1477 1476 1497 1456 
1496 1536 1516 1517 1537 1556 1557 1577 1576 
1597 1616 1596 1617 1637 1657 1636 1656 17 
16 57 36 37 56 76 97 77 96 
136 117 137 116 177 157 156 176 197 
196 217 216 237 236 256 257 277 276 
296 297 317 337 336 316 377 376 356 
357 417 395 397 396 416 437 457 456 
436 497 476 496 477 517 536 516 537 
598 919 899 618 959 638 658 939 979 
678 999 698 1019 1039 718 758 1059 1079 
738 1099 778 798 1119 1159 1139 838 818 
898 1199 878 858 1179 1259 1219 1239 938 
918 1299 1279 978 958 998 1319 1339 1018 
1379 1038 1058 1359 1078 1399 1098 1419 1138 
1118 1439 1459 1519 1479 1178 1499 1158 1198 
1218 1539 1238 1559 1258 1278 1579 1599 1619 
1318 1639 1298 1338 1358 1378 1659 19 39 
59 1418 79 1398 1438 1458 99 119 159 
1498 1478 139 199 179 1518 1538 1558 1598 
239 1578 219 1638 259 1618 279 299 1658 
18 319 339 38 359 58 78 98 399 
379 118 138 439 419 158 178 459 198 
479 499 238 218 519 539 559 258 278 
579 318 298 599 639 338 619 358 378 
659 398 679 719 418 699 438 739 458 
759 498 779 799 478 538 819 839 518 
558 859 578 879 2398 2400 2401 2399 2404 
2403 2405 2402 2406 2408 2407 2409 2412 2413 
2411 2410 2417 2415 2414 2416 2419 2420 2421 
2418 2426 2425 2423 2427 2424 2422 2429 2428 
2431 2430 2433 2435 2432 2434 2439 2436 2437 
2438 2440 2441 2443 2442 2445 2446 2447 2444 
2451 2449 2450 2448 2455 2454 2452 2453 2456 
2458 2457 2459 2463 2461 2460 2462 2465 2467 
2466 2464 2469 2468 2470 2471 2472 2473 2475 
2474 2477 2476 2480 2478 2481 2479 2485 2484 
2483 2482 2489 2486 2488 2487 2493 2492 2490 
2491 2497 2496 2495 2494 2501 2498 2500 2499 
2505 2503 2504 2502 2509 2508 2507 2506 2511 
2512 2513 2510 2516 2514 2515 2517 2520 2519 
2518 2521 2524 2525 2522 2523 2527 2528 2529 
2526 2530 2531 2532 2533 2534 2535 2536 2537 
2538 2539 2540 2541 2543 2542 2544 2545 2546 
2547 2548 2551 2550 2549 2554 2555 2553 2552 
2558 2556 2557 2559 2560 2561 2562 2563 
FIELD FieldData 7
r 3 2798 float
-0.5125 -0.4875 0 -0.5125 -0.4625 0 -0.5375 -0.4875 0 
-0.5375 -0.4625 0 -0.487805 -0.4875 0 -0.487805 -0.4625 0 
-0.463415 -0.4875 0 -0.463415 -0.4625 0 -0.439024 -0.4875 0 
-0.414634 -0.4625 0 -0.439024 -0.4625 0 -0.414634 -0.4875 0 
-0.390244 -0.4875 0 -0.365854 -0.4625 0 -0.365854 -0.4875 0 
-0.390244 -0.4625 0 -0.341463 -0.4875 0 -0.317073 -0.4625 0 
-0.341463 -0.4625 0 -0.317073 -0.4875 0 -0.292683 -0.4625 0 
-0.268293 -0.4875 0 -0.268293 -0.4625 0 -0.292683 -0.4875 0 
-0.219512 -0.4875 0 -0.243902 -0.4875 0 -0.243902 -0.4625 0 
-0.219512 -0.4625 0 -0.170732 -0.4875 0 -0.195122 -0.4625 0 
-0.195122 -0.4875 0 -0.170732 -0.4625 0 -0.121951 -0.4875 0 
-0.121951 -0.4625 0 -0.146341 -0.4875 0 -0.146341 -0.4625 0 
-0.0731707 -0.4875 0 -0.097561 -0.4625 0 -0.0731707 -0.4625 0 
-0.097561 -0.4875 0 -1.86265e-08 -0.4875 0 -0.0243903 -0.4625 0 
-0.0487805 -0.4625 0 -1.86265e-08 -0.4625 0 -0.0243903 -0.4875 0 
-0.0487805 -0.4875 0 0.0243902 -0.4875 0 0.0243902 -0.4625 0 
0.0487805 -0.4625 0 0.0487805 -0.4875 0 0.0731707 -0.4875 0 
0.097561 -0.4875 0 0.0731707 -0.4625 0 0.097561 -0.4625 0 
0.146341 -0.4875 0 0.146341 -0.4625 0 0.121951 -0.4625 0 
0.121951 -0.4875 0 0.195122 -0.4625 0 0.170732 -0.4875 0 
0.170732 -0.4625 0 0.195122 -0.4875 0 0.219512 -0.4875 0 
0.243902 -0.4625 0 0.219512 -0.4625 0 0.243902 -0.4875 0 
0.268293 -0.4875 0 0.292683 -0.4875 0 0.268293 -0.4625 0 
0.292683 -0.4625 0 0.317073 -0.4625 0 0.341463 -0.4625 0 
0.317073 -0.4875 0 0.341463 -0.4875 0 0.365854 -0.4875 0 
0.390244 -0.4875 0 0.390244 -0.4625 0 0.365854 -0.4625 0 
0.414634 -0.4875 0 0.414634 -0.4625 0 0.439024 -0.4875 0 
0.439024 -0.4625 0 0.463415 -0.4875 0 0.487805 -0.4625 0 
0.487805 -0.4875 0 0.463415 -0.4625 0 0.5375 -0.4625 0 
0.5125 -0.4875 0 0.5125 -0.4625 0 0.5375 -0.4875 0 
-0.5375 -0.4375 0 -0.5125 -0.4375 0 -0.5125 -0.4125 0 
-0.5375 -0.4125 0 -0.464128 -0.410016 0 -0.463362 -0.436539 0 
-0.487581 -0.438037 0 -0.487786 -0.413462 0 -0.415647 -0.436565 0 
-0.417426 -0.410073 0 -0.439459 -0.437502 0 -0.440738 -0.412067 0 
-0.393134 -0.435858 0 -0.373413 -0.407972 0 -0.371113 -0.436078 0 
-0.351391 -0.409673 0 -0.395101 -0.40804 0 -0.325673 -0.436682 0 
-0.328795 -0.409913 0 -0.302503 -0.437092 0 -0.348553 -0.436708 0 
-0.305837 -0.410787 0 -0.282797 -0.410874 0 -0.255467 -0.437423 0 
-0.25949 -0.411699 0 -0.27913 -0.437099 0 -0.234972 -0.413799 0 
-0.230793 -0.43813 0 -0.209796 -0.413793 0 -0.205779 -0.437968 0 
-0.154774 -0.438334 0 -0.158287 -0.414875 0 -0.180431 -0.43835 0 
-0.184196 -0.414683 0 -0.103424 -0.438344 0 -0.106433 -0.414873 0 
-0.132362 -0.414623 0 -0.129119 -0.438232 0 -0.0540477 -0.415244 0 
-0.0521014 -0.438402 0 -0.0803624 -0.414854 0 -0.0777553 -0.438272 0 
-0.00165678 -0.414071 0 -0.000724569 -0.437895 0 -0.0276881 -0.415278 0 
-0.0262785 -0.438459 0 0.0494052 -0.437601 0 0.0245161 -0.438099 0 
0.0241249 -0.414319 0 0.0495198 -0.413201 0 0.0739751 -0.437767 0 
0.0998416 -0.413239 0 0.0746842 -0.41344 0 0.0985754 -0.437704 0 
0.149357 -0.413554 0 0.124689 -0.41265 0 0.12297 -0.437522 0 
0.147483 -0.437891 0 0.174345 -0.413679 0 0.172371 -0.437903 0 
0.197252 -0.437828 0 0.199568 -0.413643 0 0.224973 -0.413659 0 
0.246993 -0.438181 0 0.221993 -0.437784 0 0.296806 -0.437653 0 
0.272202 -0.437947 0 0.25031 -0.414352 0 0.27556 -0.413653 0 
0.344414 -0.437357 0 0.32073 -0.437237 0 0.347472 -0.411985 0 
0.30021 -0.412617 0 0.324025 -0.411475 0 0.393233 -0.437924 0 
0.36864 -0.437866 0 0.371449 -0.413244 0 0.395576 -0.41287 0 
0.439523 -0.436671 0 0.416908 -0.436564 0 0.418398 -0.409294 0 
0.440327 -0.409985 0 0.488113 -0.438326 0 0.4636 -0.413302 0 
0.463209 -0.437969 0 0.488075 -0.414038 0 0.5375 -0.4125 0 
0.5125 -0.4375 0 0.5125 -0.4125 0 0.5375 -0.4375 0 
-0.5125 -0.3875 0 -0.5375 -0.3625 0 -0.5375 -0.3875 0 
-0.5125 -0.3625 0 -0.488213 -0.363229 0 -0.488008 -0.388544 0 
-0.464962 -0.382653 0 -0.465888 -0.354371 0 -0.442098 -0.386218 0 
-0.4208 -0.356198 0 -0.443479 -0.359994 0 -0.419131 -0.383244 0 
-0.376221 -0.351133 0 -0.354502 -0.354379 0 -0.396809 -0.380527 0 
-0.35322 -0.382223 0 -0.398359 -0.353414 0 -0.374958 -0.37946 0 
-0.332096 -0.356221 0 -0.309074 -0.357749 0 -0.307841 -0.384277 0 
-0.330754 -0.383026 0 -0.261948 -0.385573 0 -0.26306 -0.359198 0 
-0.284957 -0.384283 0 -0.286087 -0.357645 0 -0.213912 -0.365672 0 
-0.212528 -0.389757 0 -0.239004 -0.364848 0 -0.237673 -0.389371 0 
-0.161007 -0.391543 0 -0.186919 -0.391095 0 -0.162523 -0.368206 0 
-0.188399 -0.36747 0 -0.109052 -0.39155 0 -0.110565 -0.368202 0 
-0.136518 -0.367738 0 -0.135045 -0.39117 0 -0.0561478 -0.392542 0 
-0.0827903 -0.391843 0 -0.0576754 -0.369952 0 -0.0843099 -0.368915 0 
-0.00331663 -0.390581 0 -0.0310117 -0.369698 0 -0.0295068 -0.39242 0 
-0.00461206 -0.367257 0 0.0228758 -0.390968 0 0.02185 -0.368034 0 
0.0488934 -0.389438 0 0.0485322 -0.366388 0 0.0749196 -0.389785 0 
0.075233 -0.366862 0 0.100985 -0.389473 0 0.128784 -0.364762 0 
0.102075 -0.366541 0 0.126746 -0.388304 0 0.177077 -0.389523 0 
0.154841 -0.365727 0 0.180495 -0.365478 0 0.151931 -0.389391 0 
0.22812 -0.389927 0 0.205741 -0.366239 0 0.231241 -0.366109 0 
0.20245 -0.389929 0 0.281429 -0.364844 0 0.256419 -0.366349 0 
0.253467 -0.390439 0 0.278627 -0.389281 0 0.327134 -0.385526 0 
0.305956 -0.36231 0 0.303306 -0.387487 0 0.329695 -0.359542 0 
0.3994 -0.359555 0 0.376497 -0.362983 0 0.353029 -0.360787 0 
0.37417 -0.388337 0 0.397727 -0.38678 0 0.35045 -0.386423 0 
0.419906 -0.381248 0 0.441487 -0.382809 0 0.421408 -0.353512 0 
0.443165 -0.354907 0 0.488181 -0.389583 0 0.488213 -0.364928 0 
0.464628 -0.362112 0 0.464053 -0.388108 0 0.5375 -0.3875 0 
0.5375 -0.3625 0 0.5125 -0.3625 0 0.5125 -0.3875 0 
-0.5375 -0.3375 0 -0.5125 -0.3375 0 -0.5125 -0.3125 0 
-0.5375 -0.3125 0 -0.488542 -0.310921 0 -0.466854 -0.325098 0 
-0.488435 -0.337391 0 -0.445003 -0.333359 0 -0.44596 -0.30617 0 
-0.423604 -0.301981 0 -0.422443 -0.329109 0 -0.355433 -0.326322 0 
-0.377479 -0.323472 0 -0.399926 -0.326552 0 -0.333066 -0.329599 0 
-0.309837 -0.331422 0 -0.310331 -0.305455 0 -0.333663 -0.302959 0 
-0.263087 -0.332987 0 -0.286505 -0.331334 0 -0.286478 -0.305548 0 
-0.26258 -0.307233 0 -0.238299 -0.316223 0 -0.239033 -0.340398 0 
-0.213875 -0.341541 0 -0.213002 -0.317448 0 -0.161641 -0.321732 0 
-0.188457 -0.34384 0 -0.162529 -0.34493 0 -0.187568 -0.32025 0 
-0.136433 -0.344314 0 -0.110414 -0.34483 0 -0.135335 -0.321035 0 
-0.109149 -0.321573 0 -0.0575449 -0.347365 0 -0.084147 -0.346008 0 
-0.0811526 -0.300567 0 -0.0543892 -0.302292 0 -0.0561266 -0.324817 0 
-0.082759 -0.323187 0 -0.00236972 -0.321143 0 -0.0308248 -0.347042 0 
-0.027665 -0.301884 0 -0.00410433 -0.344129 0 -0.0293394 -0.324512 0 
0.0494916 -0.343753 0 0.0240689 -0.322824 0 0.0225511 -0.34541 0 