# vtk DataFile Version 4.0
vtk output
ASCII
DATASET POLYDATA
FIELD FieldData 4
domain 1 3 string
domain_min:-20|-15
domain_max:20|15
cell_size:0.05

variables 1 2 string
dt:0.000372678
T:1.71051

constants 1 10 string
xsize:2
ysize:1
csize:0.05
dx:0.0238095
h:0.025
rho0:1000
mass:0.566894
g:1|0
c:13.4164
CFL:0.2

functions 1 8 string
time:T=(T+dt)
continuity:rho_dot=((-(rho*sph_D00(v,mass,rho,Wp52220)))+(((0.1*c)*h)*sph_L00(rho,mass,rho,Wp52220)))
irho:rho=(rho+int1((rho_dot,dt))
EOS:p=(((c^2)*(rho-rho0))+10000)
euler:a=if((gid,(0*v),(((-((1/rho)*sph_G11(p,mass,rho,Wp52220)))+(0.01*sph_L00(v,mass,rho,Wp52220)))+g))
vel:v=(v+int1((a,dt))
pos:r=(r+int1((v,dt))
new_dt:dt=(CFL*min((sqrt(((h/fmax(magnitude((a)))),(h/c)))

POINTS 2798 float
-0.5375 -0.4875 0 -0.5125 -0.4625 0 -0.5125 -0.4875 0 
-0.5375 -0.4625 0 -0.487805 -0.4875 0 -0.487805 -0.4625 0 
-0.463415 -0.4875 0 -0.463415 -0.4625 0 -0.439024 -0.4875 0 
-0.414634 -0.4875 0 -0.414634 -0.4625 0 -0.439024 -0.4625 0 
-0.390244 -0.4625 0 -0.390244 -0.4875 0 -0.365854 -0.4625 0 
-0.365854 -0.4875 0 -0.341463 -0.4625 0 -0.317073 -0.4875 0 
-0.341463 -0.4875 0 -0.317073 -0.4625 0 -0.292683 -0.4625 0 
-0.268293 -0.4875 0 -0.292683 -0.4875 0 -0.268293 -0.4625 0 
-0.219512 -0.4625 0 -0.219512 -0.4875 0 -0.243902 -0.4875 0 
-0.243902 -0.4625 0 -0.170732 -0.4875 0 -0.195122 -0.4875 0 
-0.170732 -0.4625 0 -0.195122 -0.4625 0 -0.121951 -0.4875 0 
-0.146341 -0.4625 0 -0.146341 -0.4875 0 -0.121951 -0.4625 0 
-0.0731707 -0.4625 0 -0.097561 -0.4875 0 -0.0731707 -0.4875 0 
-0.097561 -0.4625 0 -1.86265e-08 -0.4625 0 -0.0243903 -0.4625 0 
-0.0243903 -0.4875 0 -0.0487805 -0.4625 0 -0.0487805 -0.4875 0 
-1.86265e-08 -0.4875 0 0.0243902 -0.4625 0 0.0487805 -0.4625 0 
0.0487805 -0.4875 0 0.0243902 -0.4875 0 0.0731707 -0.4875 0 
0.097561 -0.4625 0 0.0731707 -0.4625 0 0.097561 -0.4875 0 
0.121951 -0.4625 0 0.146341 -0.4625 0 0.121951 -0.4875 0 
0.146341 -0.4875 0 0.170732 -0.4625 0 0.195122 -0.4625 0 
0.195122 -0.4875 0 0.170732 -0.4875 0 0.219512 -0.4875 0 
0.219512 -0.4625 0 0.243902 -0.4875 0 0.243902 -0.4625 0 
0.292683 -0.4625 0 0.268293 -0.4875 0 0.292683 -0.4875 0 
0.268293 -0.4625 0 0.317073 -0.4875 0 0.317073 -0.4625 0 
0.341463 -0.4875 0 0.341463 -0.4625 0 0.390244 -0.4625 0 
0.390244 -0.4875 0 0.365854 -0.4875 0 0.365854 -0.4625 0 
0.414634 -0.4875 0 0.439024 -0.4875 0 0.414634 -0.4625 0 
0.439024 -0.4625 0 0.463415 -0.4625 0 0.487805 -0.4875 0 
0.487805 -0.4625 0 0.463415 -0.4875 0 0.5125 -0.4875 0 
0.5375 -0.4875 0 0.5125 -0.4625 0 0.5375 -0.4625 0 
-0.5125 -0.4125 0 -0.5125 -0.4375 0 -0.5375 -0.4125 0 
-0.5375 -0.4375 0 -0.466653 -0.410005 0 -0.489335 -0.408308 0 
-0.488943 -0.43577 0 -0.466227 -0.436759 0 -0.422096 -0.411091 0 
-0.420248 -0.436983 0 -0.444588 -0.408662 0 -0.443333 -0.436446 0 
-0.398385 -0.411123 0 -0.352702 -0.409315 0 -0.39678 -0.437224 0 
-0.374947 -0.408689 0 -0.374292 -0.43534 0 -0.352012 -0.437927 0 
-0.330914 -0.403978 0 -0.331547 -0.432063 0 -0.31023 -0.439645 0 
-0.309085 -0.41182 0 -0.288732 -0.400983 0 -0.289105 -0.431824 0 
-0.268376 -0.438149 0 -0.268149 -0.411045 0 -0.245596 -0.410989 0 
-0.24474 -0.436991 0 -0.200838 -0.404079 0 -0.220887 -0.436844 0 
-0.221221 -0.412802 0 -0.168458 -0.399967 0 -0.169321 -0.438354 0 
-0.150806 -0.413789 0 -0.183109 -0.419991 0 -0.197838 -0.438321 0 
-0.127446 -0.409608 0 -0.145111 -0.437609 0 -0.121959 -0.435992 0 
-0.105001 -0.408966 0 -0.0763829 -0.437501 0 -0.0828224 -0.411838 0 
-0.0998934 -0.436726 0 -0.0590245 -0.412666 0 -0.0522421 -0.43736 0 
-0.0303617 -0.435244 0 -0.0377631 -0.406028 0 -0.0160582 -0.410252 0 
-0.00790691 -0.437121 0 0.0060252 -0.408585 0 0.0142907 -0.435963 0 
0.0376115 -0.438044 0 0.0290178 -0.411725 0 0.074214 -0.406018 0 
0.0953852 -0.418117 0 0.0525813 -0.410201 0 0.0821733 -0.438206 0 
0.0604074 -0.434993 0 0.134177 -0.437074 0 0.14821 -0.407238 0 
0.109418 -0.438655 0 0.125318 -0.414275 0 0.156495 -0.436168 0 
0.195079 -0.412241 0 0.180151 -0.437571 0 0.169976 -0.412376 0 
0.228673 -0.438839 0 0.203807 -0.437106 0 0.220122 -0.414181 0 
0.244692 -0.414168 0 0.27387 -0.413763 0 0.277795 -0.438045 0 
0.253771 -0.436949 0 0.297676 -0.414258 0 0.303298 -0.43864 0 
0.323216 -0.417045 0 0.330375 -0.439132 0 0.356611 -0.437943 0 
0.351446 -0.416173 0 0.38185 -0.438238 0 0.383261 -0.416288 0 
0.434184 -0.439975 0 0.435631 -0.406801 0 0.407695 -0.438329 0 
0.414908 -0.417702 0 0.487868 -0.413612 0 0.467914 -0.403516 0 
0.488837 -0.4375 0 0.452187 -0.42302 0 0.46537 -0.439152 0 
0.5125 -0.4125 0 0.5125 -0.4375 0 0.5375 -0.4375 0 
0.5375 -0.4125 0 -0.5375 -0.3625 0 -0.5125 -0.3625 0 
-0.5375 -0.3875 0 -0.5125 -0.3875 0 -0.464604 -0.357562 0 
-0.489485 -0.379915 0 -0.467466 -0.383814 0 -0.48907 -0.352901 0 
-0.442055 -0.350998 0 -0.423791 -0.384645 0 -0.445003 -0.379598 0 
-0.420129 -0.358344 0 -0.400601 -0.385738 0 -0.37699 -0.382812 0 
-0.368853 -0.358691 0 -0.353204 -0.381903 0 -0.396446 -0.360569 0 
-0.310706 -0.383435 0 -0.332497 -0.375328 0 -0.325052 -0.352773 0 
-0.266051 -0.356589 0 -0.271506 -0.381557 0 -0.292517 -0.369689 0 
-0.248706 -0.38518 0 -0.225214 -0.386736 0 -0.241716 -0.360685 0 
-0.21021 -0.370824 0 -0.156323 -0.379563 0 -0.189026 -0.383541 0 
-0.195522 -0.350378 0 -0.174933 -0.363347 0 -0.134188 -0.386175 0 
-0.110621 -0.380812 0 -0.118093 -0.358224 0 -0.142069 -0.358061 0 
-0.0881457 -0.384387 0 -0.085809 -0.359846 0 -0.0649443 -0.38718 0 
-0.0629852 -0.358981 0 -0.0435473 -0.378156 0 -0.0390623 -0.350859 0 
-0.0171655 -0.355149 0 -0.0211861 -0.381789 0 0.00579359 -0.355761 0 
0.0284168 -0.359836 0 0.0247735 -0.384755 0 0.0479714 -0.385345 0 
0.0480866 -0.35045 0 0.00125533 -0.382165 0 0.0838275 -0.384929 0 
0.0636083 -0.370886 0 0.0911625 -0.361305 0 0.134981 -0.386268 0 
0.113144 -0.374982 0 0.138263 -0.358085 0 0.107445 -0.397819 0 
0.156872 -0.376971 0 0.166665 -0.353408 0 0.188141 -0.366077 0 
0.176527 -0.388793 0 0.213205 -0.36389 0 0.22701 -0.389888 0 
0.242393 -0.373329 0 0.202967 -0.388454 0 0.260577 -0.359973 0 
0.276679 -0.38342 0 0.257269 -0.394672 0 0.288521 -0.363098 0 
0.299853 -0.392095 0 0.325311 -0.355857 0 0.330333 -0.396228 0 
0.345191 -0.380178 0 0.314512 -0.374889 0 0.364982 -0.398746 0 
0.399529 -0.373666 0 0.398397 -0.399036 0 0.375847 -0.379444 0 
0.353147 -0.35984 0 0.377598 -0.35486 0 0.448956 -0.385581 0 
0.428046 -0.362717 0 0.421954 -0.386272 0 0.448631 -0.356273 0 
0.406385 -0.35044 0 0.489486 -0.38676 0 0.468631 -0.373665 0 
0.489187 -0.35924 0 0.5375 -0.3875 0 0.5125 -0.3625 0 
0.5375 -0.3625 0 0.5125 -0.3875 0 -0.5375 -0.3375 0 
-0.5375 -0.3125 0 -0.5125 -0.3125 0 -0.5125 -0.3375 0 
-0.466298 -0.304253 0 -0.489219 -0.324237 0 -0.467896 -0.332917 0 
-0.404664 -0.334171 0 -0.402813 -0.308956 0 -0.447397 -0.320666 0 
-0.426226 -0.300873 0 -0.426764 -0.328668 0 -0.380656 -0.337816 0 
-0.377861 -0.313471 0 -0.355767 -0.323511 0 -0.302388 -0.348743 0 
-0.32894 -0.300421 0 -0.331913 -0.326301 0 -0.349075 -0.34895 0 
-0.308628 -0.324058 0 -0.279706 -0.338523 0 -0.26449 -0.312639 0 
-0.287064 -0.31376 0 -0.251294 -0.334195 0 -0.206503 -0.326644 0 
-0.230322 -0.322908 0 -0.244816 -0.301002 0 -0.223078 -0.348597 0 
-0.16046 -0.342529 0 -0.180385 -0.329841 0 -0.197015 -0.303493 0 
-0.17207 -0.307647 0 -0.149089 -0.318163 0 -0.131852 -0.333536 0 
-0.124692 -0.301143 0 -0.101534 -0.341901 0 -0.111643 -0.3194 0 
-0.0662881 -0.303572 0 -0.0894839 -0.309601 0 -0.0781844 -0.331924 0 
-0.0559596 -0.332143 0 -0.00454073 -0.329237 0 -0.0432507 -0.309262 0 
-0.0271756 -0.326096 0 -0.0113253 -0.30261 0 0.0342163 -0.302017 0 
0.0184939 -0.331389 0 0.0115269 -0.304077 0 0.0407757 -0.326597 0 
0.0724706 -0.344647 0 0.0650921 -0.32129 0 0.0885006 -0.311203 0 
0.0955067 -0.333754 0 0.120362 -0.325758 0 0.116168 -0.349829 0 
0.140919 -0.312727 0 0.111741 -0.302234 0 0.147332 -0.336047 0 
0.193413 -0.342271 0 0.194407 -0.313109 0 0.172678 -0.327756 0 
0.163406 -0.305142 0 0.24739 -0.33333 0 0.213762 -0.331523 0 
0.227167 -0.312733 0 0.231429 -0.349581 0 0.27843 -0.318915 0 
0.296136 -0.301366 0 0.273221 -0.340083 0 0.253452 -0.310311 0 
0.306312 -0.324073 0 0.337466 -0.336995 0 0.301922 -0.344847 0 
0.327776 -0.316186 0 0.361594 -0.333165 0 0.389514 -0.311503 0 
0.388628 -0.332428 0 0.359678 -0.311549 0 0.445071 -0.306206 0 
0.419105 -0.331529 0 0.417516 -0.309446 0 0.442195 -0.332158 0 
0.468601 -0.343442 0 0.48781 -0.3065 0 0.465465 -0.31729 0 
0.489579 -0.331786 0 0.5125 -0.3375 0 0.5125 -0.3125 0 
0.5375 -0.3375 0 0.5375 -0.3125 0 -0.5375 -0.2875 0 
-0.5375 -0.2625 0 -0.5125 -0.2875 0 -0.5125 -0.2625 0 
-0.490343 -0.296663 0 -0.491018 -0.261526 0 -0.474498 -0.278462 0 
-0.457854 -0.261796 0 -0.446891 -0.28933 0 -0.416212 -0.276649 0 
-0.435622 -0.264873 0 -0.368649 -0.262426 0 -0.394873 -0.285531 0 
-0.371686 -0.288304 0 -0.350559 -0.296684 0 -0.391623 -0.259004 0 
-0.346193 -0.269092 0 -0.301761 -0.267587 0 -0.306867 -0.295419 0 
-0.324729 -0.272667 0 -0.263415 -0.281166 0 -0.284138 -0.253688 0 
-0.283592 -0.286819 0 -0.262171 -0.255886 0 -0.21426 -0.27052 0 
-0.219748 -0.297401 0 -0.236263 -0.251846 0 -0.238474 -0.276091 0 
-0.164845 -0.25819 0 -0.187019 -0.251854 0 -0.192818 -0.278111 0 
-0.169778 -0.282884 0 -0.141856 -0.267509 0 -0.146826 -0.292306 0 
-0.118884 -0.276657 0 -0.076007 -0.278203 0 -0.0513697 -0.280616 0 
-0.0983965 -0.259131 0 -0.0712997 -0.254453 0 -0.0978964 -0.287301 0 
-0.0462502 -0.256488 0 -0.0228622 -0.2604 0 -0.0288991 -0.287255 0 
-0.00383837 -0.276014 0 0.0301572 -0.252136 0 0.0191925 -0.277637 0 
0.00553147 -0.251459 0 0.043248 -0.275238 0 0.0577929 -0.297678 0 
0.065218 -0.266577 0 0.0792503 -0.287951 0 0.0884303 -0.258135 0 
0.101838 -0.27971 0 0.123106 -0.267732 0 0.145675 -0.257525 0 
0.134172 -0.289155 0 0.183151 -0.291245 0 0.176209 -0.26379 0 
0.157104 -0.279644 0 0.199396 -0.27189 0 0.243299 -0.252379 0 
0.212087 -0.294396 0 0.241114 -0.288868 0 0.226119 -0.27119 0 
0.259484 -0.270625 0 0.288848 -0.273605 0 0.271326 -0.29192 0 
0.274134 -0.250737 0 0.348422 -0.276147 0 0.303141 -0.255406 0 
[...]
POINT_DATA 2798
SCALARS id float
LOOKUP_TABLE default
2600 2621 2620 2601 2640 2641 2642 2643 2644 
2646 2647 2645 2649 2648 2651 2650 2653 2654 
2652 2655 2657 2658 2656 2659 2663 2662 2660 
2661 2666 2664 2667 2665 2670 2669 2668 2671 
2675 2672 2674 2673 2681 2679 2678 2677 2676 
2680 2683 2685 2684 2682 2686 2689 2687 2688 
2691 2693 2690 2692 2695 2697 2696 2694 2698 
2699 2700 2701 2705 2702 2704 2703 2706 2707 
2708 2709 2713 2712 2710 2711 2714 2716 2715 
2717 2719 2720 2721 2718 2722 2742 2723 2743 
2623 2622 2603 2602 1697 1661 1660 1678 1750 
1714 1715 1696 1768 1822 1732 1823 1786 1804 
1877 1840 1858 1913 1931 1876 1894 1949 1967 
1912 2003 1930 1985 2057 1984 2093 1966 1948 
2111 2020 2038 2129 2074 2147 2056 2165 2092 
2110 2184 2183 2128 2201 2146 2164 2219 2255 
2218 2237 2200 2182 2254 2310 2236 2291 2272 
2328 2290 2329 2308 2309 2330 2331 2347 2326 
2327 2350 2346 2349 2348 2345 2365 2344 2364 
2380 2383 2362 2363 2385 2367 2384 2382 2381 
2725 2724 2744 2745 2605 2625 2604 2624 1716 
1662 1679 1698 1769 1787 1733 1806 1805 1841 
1842 1859 1824 1914 1895 1896 2005 1950 1932 
1986 2004 2022 2021 2075 2002 2058 2039 2112 
2130 2131 2094 2148 2167 2166 2185 2203 2222 
2221 2202 2239 2257 2238 2256 2276 2220 2274 
2275 2293 2311 2292 2296 2273 2312 2314 2315 
2313 2300 2316 2317 2332 2336 2334 2333 2335 
2352 2318 2351 2354 2353 2366 2372 2368 2369 
2284 2337 2386 2371 2370 2390 2267 2387 2389 
2388 2746 2727 2747 2726 2606 2607 2627 2626 
1752 1680 1734 1825 1844 1751 1807 1788 1843 
1862 1861 1933 1897 1878 1860 1915 1968 1987 
1951 2023 2059 2041 2024 2040 2076 2077 2078 
2096 2095 2113 2132 2149 2150 2205 2168 2186 
2204 2240 2206 2223 2224 2242 2258 2241 2259 
2294 2277 2279 2278 2297 2295 2281 2280 2298 
2282 2265 2299 2264 2230 2247 2125 2283 2142 
1362 2266 21 1875 2195 2248 1481 1461 1620 
340 60 2213 2090 0 2231 2391 2301 280 
2355 2728 2729 2748 2749 2608 2609 2628 2629 
1717 1663 1735 1771 1770 1826 1789 1898 1881 
1880 1879 1899 1916 1970 1934 1953 1969 1988 
1952 2006 2061 2060 2043 2042 2098 2080 2079 
2097 2115 2114 2133 2187 2190 2151 2188 2169 
2189 2191 2207 2208 2174 2225 2156 2243 2260 
2244 2261 2245 2262 2263 2211 2246 2229 2054 
2194 2072 1581 2212 2018 1929 1522 120 1441 
1838 1161 140 100 1521 1561 1122 20 1301 
1460 1420 1281 1101 1341 1221 2373 320 2750 
2751 2730 2731 2610 2630 2611 2631 1790 1753 
1699 1718 1772 1863 1808 1845 1882 1900 1917 
1918 1901 1971 1935 1954 1972 2008 2025 1989 
2007 2045 2062 2026 2044 2081 2046 2028 2063 
2099 2116 2064 2117 2135 2082 2170 2134 2152 
2155 2172 2173 2123 2209 2140 2139 2226 2210 
2227 2158 2192 2228 2193 2053 2175 2177 2070 
2036 2124 2159 2176 2035 1821 1893 1946 1803 
2107 1911 180 1361 1 1928 40 1541 1600 
1820 1141 1261 1181 1201 1540 1121 1183 1321 
1440 1400 2732 2752 2753 2733 2633 2632 2613 
2612 1719 1700 1681 1664 1827 1809 1736 1883 
1846 1902 1864 1919 1938 1955 1937 1936 1973 
1956 1990 1974 1991 2027 1992 2009 1905 1977 
1993 2010 2011 2030 1959 2029 2047 2083 2012 
2100 2065 2153 2101 2136 2171 2138 2120 2137 
2154 2089 2119 2157 2141 2122 2052 2071 2050 
2105 1839 2106 2087 2088 2051 2000 1964 2017 
1857 2034 1731 1998 1981 1982 1580 1963 1910 
160 1520 1241 1040 1802 1001 1081 1729 1766 
2754 2735 2734 2755 2635 2615 2614 2634 1737 
1683 1682 1701 1665 1865 1847 1754 1828 1791 
1866 1884 1885 1920 1868 1867 1903 1939 1940 
1957 1921 1887 1924 1975 1976 1923 1958 1871 
1852 1781 1835 1817 1711 1994 1798 1941 2048 
1906 1925 1960 1995 1944 2013 2066 2014 2118 
2121 2084 2103 2085 2102 2104 2049 2068 2033 
2032 2015 2067 2086 1785 80 1999 1890 2069 
2016 1908 1856 1693 462 1926 1980 1837 1892 
900 1942 1712 1784 1749 1560 1853 1767 1713 
1873 2736 2737 2756 2757 2617 2636 2616 2637 
1720 1667 1702 1666 1810 1755 1792 1773 1830 
1829 1811 1848 1831 1812 1793 1849 1741 1904 
1813 1869 1794 1922 1870 1834 1832 1850 1795 
1886 1815 1816 1851 1779 1673 1689 1727 1780 
1797 1745 1674 2361 1691 1746 1708 1978 1799 
1100 1814 1943 1996 2031 1888 1997 1709 1961 
1140 1962 1927 1945 1695 820 1874 1889 1710 
1979 762 2325 1180 1728 1909 1120 2271 1080 
1676 1891 1783 2288 1675 542 1220 1300 1819 
1818 2739 2758 2738 2759 2564 2567 2565 2566 
2571 2568 2570 2569 2572 2574 2575 2573 2576 
2579 2578 2577 2581 2582 2583 2580 2586 2587 
2584 2585 2591 2590 2589 2588 2593 2592 2594 
2595 2598 2596 2599 2597 2638 2619 2639 2618 
1669 1684 1668 1685 1774 1703 1738 240 1756 
2143 1721 1704 1757 1686 1758 1739 1722 2374 
2356 2250 2215 1740 1775 1776 1670 1777 2251 
1760 2303 2234 1742 2357 1502 1523 1723 1283 
1687 1705 1833 1778 1796 1744 1726 2359 2252 
2376 1762 1671 1724 2323 2377 2179 1725 2198 
1707 1761 2343 41 2396 2394 2235 640 1743 
800 1763 1688 2270 2253 461 2306 1672 2287 
2019 1020 2145 2199 2341 840 1060 2397 761 
601 2740 2741 2760 2761 2764 2765 2763 2762 
2768 2766 2767 2769 2772 2771 2770 2773 2777 
2776 2774 2775 2780 2778 2781 2779 2783 2782 
2785 2784 2789 2787 2786 2788 2793 2790 2792 
2791 2795 2796 2797 2794 1782 1260 1692 560 
1320 822 620 363 541 941 921 1694 1340 
981 1102 1677 701 381 1240 1202 1062 2285 
682 423 1021 1401 2178 861 402 641 2319 
1262 1222 901 1601 980 742 801 2160 2249 
2338 404 1000 783 220 1061 843 260 2392 
1142 960 1282 781 962 2232 883 2320 903 
1381 1182 2214 2126 1421 2302 1184 1543 922 
1322 723 1402 1947 1043 923 1243 1342 1023 
1203 1621 1022 1162 1003 1759 2375 1123 2305 
2216 1582 1223 1303 201 181 2358 983 963 
806 1542 884 2161 161 1185 2339 2163 2395 
2196 2393 2233 1483 2360 1422 2304 2180 2321 
2108 1983 2307 2055 163 1544 2197 341 1564 
2037 2109 162 1801 1855 1480 2378 680 2289 
1690 421 520 2342 2217 460 1500 780 1836 
1730 223 2091 1748 482 1380 1765 720 561 
881 1800 1907 1200 1872 1764 1747 862 1041 
1242 1854 802 263 221 700 441 481 43 
362 540 101 1605 422 302 123 4 600 
521 321 1585 241 501 62 124 2181 442 
721 740 920 144 282 361 262 264 85 
24 722 401 242 463 222 621 283 224 
760 661 323 403 880 383 343 382 681 
940 304 344 245 703 522 284 364 305 
582 782 325 602 741 583 841 683 961 
702 1082 1002 804 563 662 803 622 821 
643 942 763 642 664 823 1063 1640 663 
744 1103 982 1382 625 863 1204 864 1083 
1044 1163 943 764 902 1042 844 825 566 
1144 786 904 1105 1024 766 300 1124 1064 
1302 1004 1143 1045 1263 984 1641 964 1145 
200 1602 1106 1501 1264 1363 1706 1383 1482 
1224 143 141 660 1225 1463 360 42 2324 
81 61 2268 1443 500 1424 480 1404 182 
83 1385 2340 261 3 860 22 2269 2322 
420 2127 2286 1643 2379 104 281 63 1360 
1280 1160 1965 1604 84 103 380 1623 122 
1603 142 102 1545 2 1584 1485 1565 1504 
1525 1465 1505 44 1466 105 25 301 26 
580 1624 6 1645 45 64 5 1547 27 
1567 204 203 183 184 165 66 244 166 
324 443 243 342 225 205 303 322 285 
185 186 147 365 206 266 483 502 345 
581 424 562 444 405 366 326 503 385 
386 543 544 464 603 684 623 743 824 
624 645 565 882 704 604 842 605 584 
526 665 546 585 724 785 685 626 705 
784 725 805 646 745 746 765 845 924 
787 865 885 905 1104 807 944 866 925 
1025 1084 886 985 1086 1562 906 1164 945 
965 1344 1065 1442 1125 1066 1085 1244 1343 
1563 1087 2162 1126 1366 1165 1503 1423 1403 
1186 1462 1384 1323 1304 1345 1364 23 1365 
1227 1524 2073 121 2001 400 82 1644 1642 
440 1346 1266 1325 1286 1464 1267 1228 1305 
1405 1247 1444 1583 1306 1406 1387 1386 1347 
1367 1484 1425 1426 1445 1486 1427 1446 1467 
1546 1625 1428 1566 1506 1448 1487 1586 1526 
1507 1527 1606 1626 1646 65 86 1647 1627 
1607 46 1608 202 7 47 146 67 164 
87 126 125 106 145 226 127 167 88 
187 286 265 207 384 246 208 227 346 
209 306 189 247 287 267 228 523 484 
288 327 307 328 425 504 406 644 564 
445 485 347 524 446 407 465 426 505 
466 427 525 545 506 486 487 547 567 
507 586 606 686 607 627 666 687 826 
726 706 647 727 707 747 846 867 668 
767 688 887 848 827 788 868 849 847 
907 869 986 966 1046 1047 926 946 1005 
1026 1205 947 967 1006 948 987 1265 1067 
1088 1027 1007 1107 1284 1226 1207 1245 1285 
1166 1206 2144 1324 1622 1128 1187 1130 1167 
1129 1246 1110 1147 1188 1208 1148 1209 1189 
1168 1229 1287 1307 1248 1268 1210 1368 1326 
1308 1288 1327 1348 1329 1407 1328 1369 1388 
1349 1408 1447 1429 1409 1468 1449 1488 1469 
1548 1509 1508 1489 1528 1587 1588 1549 1568 
1529 1589 1628 1569 1629 1648 8 1609 28 
1649 48 9 29 68 30 49 69 148 
108 107 128 129 168 188 170 150 149 
169 229 249 248 210 190 268 289 269 
308 250 309 329 290 367 349 348 310 
369 387 368 388 409 408 447 428 448 
449 467 468 527 508 488 528 587 568 
548 608 588 589 569 549 628 648 609 
667 629 669 630 649 650 689 728 709 
708 749 808 768 729 748 789 828 769 
888 830 829 809 850 889 870 890 908 
910 928 909 927 949 968 988 929 1028 
1146 1089 1068 1008 1108 1069 1048 1090 1109 
1127 1049 1071 1091 1092 1070 1111 1149 1131 
1112 1132 1170 1150 1169 1151 1249 1211 1190 
1230 1269 1289 1310 1291 1311 1309 1290 1330 
1350 1332 1331 1351 1389 1390 1370 1371 1410 
1411 1430 1431 1451 1450 1470 1471 1491 1511 
1510 1490 1550 1531 1530 1551 1591 1571 1570 
1590 1611 1651 1630 1631 1610 1650 31 11 
10 50 89 70 51 109 110 130 90 
111 151 132 131 171 191 172 152 230 
231 211 212 232 270 251 291 271 292 
311 389 370 350 330 390 371 391 410 
431 450 430 429 411 490 469 470 489 
509 510 511 529 530 570 551 550 571 
591 590 631 611 610 670 691 671 690 
651 731 711 730 710 770 771 751 750 
790 791 810 811 831 871 852 851 912 
892 911 891 872 931 969 950 930 989 
971 970 1029 1009 1010 991 1011 990 1030 
1050 1051 1031 1072 1073 1094 1093 1133 1113 
1114 1134 1152 1171 1172 1153 1192 1233 1212 
1231 1191 1251 1250 1270 1232 1293 1292 1272 
1271 1312 1313 1353 1352 1333 1372 1392 1391 
1373 1412 1433 1432 1413 1452 1473 1453 1472 
1513 1512 1493 1492 1532 1553 1533 1552 1573 
1572 1593 1592 1632 1613 1633 1653 1612 1652 
32 12 33 13 53 73 52 71 91 
92 113 93 72 112 154 133 134 155 
174 173 153 194 192 214 213 193 253 
234 233 252 293 272 273 313 351 352 
332 331 312 372 392 393 373 432 413 
412 452 451 473 471 472 512 493 492 
491 513 531 552 532 553 573 592 593 
572 612 633 632 613 652 673 653 672 
713 712 693 733 692 732 753 773 752 
772 792 812 813 793 853 833 832 874 
894 893 873 932 933 913 914 951 972 
952 973 953 1012 992 993 1013 1053 1032 
1052 1033 1155 1074 1136 1175 1135 1115 1174 
1195 1194 1154 1214 1173 1193 1235 1254 1213 
1255 1275 1234 1253 1273 1274 1252 1335 1294 
1314 1315 1355 1375 1354 1334 1395 1394 1374 
1393 1435 1434 1414 1455 1415 1475 1454 1495 
1474 1515 1494 1514 1535 1555 1575 1554 1534 
1595 1614 1615 1574 1594 1634 1654 1635 1655 
34 35 14 55 15 75 95 54 74 
115 94 156 114 176 135 196 215 195 
276 175 255 296 275 235 254 295 315 
274 354 294 334 375 314 374 395 333 
353 435 415 394 414 455 434 433 454 
475 453 495 474 515 494 514 534 533 
555 554 594 615 595 575 574 634 635 
655 614 654 675 694 695 674 734 735 
714 715 755 754 774 775 794 795 815 
814 896 854 855 835 834 935 895 875 
916 915 975 934 955 974 954 1015 995 
1035 1055 994 1014 1034 1095 1054 1075 1357 
1337 1196 1216 1377 1215 1236 1397 1417 1276 
1437 1256 1477 1296 1457 1316 1336 1295 1497 
1537 1356 1376 1517 1557 1396 1597 1577 1416 
1456 1617 1637 1436 1657 17 1496 1476 57 
1516 37 1536 1556 97 1576 77 1596 137 
117 1616 1656 177 16 157 1636 36 56 
197 96 237 76 217 277 116 136 297 
317 216 257 337 417 256 397 357 236 
336 457 377 437 477 316 376 356 355 
335 497 517 557 396 537 416 436 577 
597 456 637 476 617 677 516 657 496 
536 717 697 535 576 757 737 556 777 
616 797 596 837 636 656 857 817 676 
716 696 877 897 937 756 736 917 957 
977 796 776 1017 836 997 816 1057 856 
1037 876 936 1077 1097 956 976 1137 1117 
996 1056 1197 1016 1177 1036 1096 1076 1237 
1217 1157 1116 1257 1277 1297 1176 1317 1156 
158 178 1279 1299 198 1339 218 1319 1359 
238 258 1379 1399 298 1419 278 1459 338 
1439 318 1479 398 378 1499 358 418 1519 
438 1539 1579 478 458 1559 1619 518 1599 
498 1639 538 558 1659 19 578 39 598 
618 59 79 638 119 99 658 678 159 
698 179 139 199 758 219 738 718 259 
798 239 778 838 299 279 818 339 319 
858 878 359 379 399 918 898 439 938 
958 419 459 1018 998 479 978 1058 1038 
499 519 559 579 1078 539 1098 599 619 
1138 1118 1198 659 639 1158 1178 1238 1218 
699 679 1258 739 1278 719 779 759 1318 
1298 819 1358 1338 799 1398 859 1378 839 
1418 879 1458 899 1438 939 919 1498 1478 
979 1538 1518 959 1578 1558 999 1019 1598 
1039 1059 1638 1079 1618 18 1658 1119 1139 
1099 58 1159 38 1179 1219 78 98 1199 
118 138 1259 1239 2399 2400 2398 2401 2402 
2403 2405 2404 2406 2409 2408 2407 2410 2411 
2413 2412 2417 2415 2414 2416 2418 2421 2420 
2419 2424 2426 2425 2423 2427 2422 2431 2428 
2430 2429 2433 2434 2435 2432 2438 2439 2436 
2437 2442 2441 2443 2440 2446 2447 2444 2445 
2449 2448 2450 2451 2453 2452 2454 2455 2456 
2457 2458 2459 2463 2461 2460 2462 2467 2465 
2464 2466 2469 2471 2468 2470 2472 2473 2475 
2474 2478 2477 2476 2481 2479 2480 2482 2483 
2484 2485 2488 2487 2489 2486 2493 2492 2490 
2491 2497 2496 2495 2494 2499 2498 2501 2500 
2504 2502 2505 2503 2509 2508 2507 2506 2511 
2510 2513 2512 2517 2515 2514 2516 2518 2520 
2519 2521 2525 2522 2523 2524 2527 2528 2529 
2526 2530 2531 2532 2533 2534 2535 2536 2537 
2538 2539 2543 2541 2540 2542 2544 2545 2546 
2547 2548 2549 2550 2551 2552 2554 2553 2555 
2558 2556 2557 2559 2560 2561 2562 2563 
FIELD FieldData 7
r 3 2798 float
-0.5375 -0.4875 0 -0.5125 -0.4625 0 -0.5125 -0.4875 0 
-0.5375 -0.4625 0 -0.487805 -0.4875 0 -0.487805 -0.4625 0 
-0.463415 -0.4875 0 -0.463415 -0.4625 0 -0.439024 -0.4875 0 
-0.414634 -0.4875 0 -0.414634 -0.4625 0 -0.439024 -0.4625 0 
-0.390244 -0.4625 0 -0.390244 -0.4875 0 -0.365854 -0.4625 0 
-0.365854 -0.4875 0 -0.341463 -0.4625 0 -0.317073 -0.4875 0 
-0.341463 -0.4875 0 -0.317073 -0.4625 0 -0.292683 -0.4625 0 
-0.268293 -0.4875 0 -0.292683 -0.4875 0 -0.268293 -0.4625 0 
-0.219512 -0.4625 0 -0.219512 -0.4875 0 -0.243902 -0.4875 0 
-0.243902 -0.4625 0 -0.170732 -0.4875 0 -0.195122 -0.4875 0 
-0.170732 -0.4625 0 -0.195122 -0.4625 0 -0.121951 -0.4875 0 
-0.146341 -0.4625 0 -0.146341 -0.4875 0 -0.121951 -0.4625 0 
-0.0731707 -0.4625 0 -0.097561 -0.4875 0 -0.0731707 -0.4875 0 
-0.097561 -0.4625 0 -1.86265e-08 -0.4625 0 -0.0243903 -0.4625 0 
-0.0243903 -0.4875 0 -0.0487805 -0.4625 0 -0.0487805 -0.4875 0 
-1.86265e-08 -0.4875 0 0.0243902 -0.4625 0 0.0487805 -0.4625 0 
0.0487805 -0.4875 0 0.0243902 -0.4875 0 0.0731707 -0.4875 0 
0.097561 -0.4625 0 0.0731707 -0.4625 0 0.097561 -0.4875 0 
0.121951 -0.4625 0 0.146341 -0.4625 0 0.121951 -0.4875 0 
0.146341 -0.4875 0 0.170732 -0.4625 0 0.195122 -0.4625 0 
0.195122 -0.4875 0 0.170732 -0.4875 0 0.219512 -0.4875 0 
0.219512 -0.4625 0 0.243902 -0.4875 0 0.243902 -0.4625 0 
0.292683 -0.4625 0 0.268293 -0.4875 0 0.292683 -0.4875 0 
0.268293 -0.4625 0 0.317073 -0.4875 0 0.317073 -0.4625 0 
0.341463 -0.4875 0 0.341463 -0.4625 0 0.390244 -0.4625 0 
0.390244 -0.4875 0 0.365854 -0.4875 0 0.365854 -0.4625 0 
0.414634 -0.4875 0 0.439024 -0.4875 0 0.414634 -0.4625 0 
0.439024 -0.4625 0 0.463415 -0.4625 0 0.487805 -0.4875 0 
0.487805 -0.4625 0 0.463415 -0.4875 0 0.5125 -0.4875 0 
0.5375 -0.4875 0 0.5125 -0.4625 0 0.5375 -0.4625 0 
-0.5125 -0.4125 0 -0.5125 -0.4375 0 -0.5375 -0.4125 0 
-0.5375 -0.4375 0 -0.466653 -0.410005 0 -0.489335 -0.408308 0 
-0.488943 -0.43577 0 -0.466227 -0.436759 0 -0.422096 -0.411091 0 
-0.420248 -0.436983 0 -0.444588 -0.408662 0 -0.443333 -0.436446 0 
-0.398385 -0.411123 0 -0.352702 -0.409315 0 -0.39678 -0.437224 0 
-0.374947 -0.408689 0 -0.374292 -0.43534 0 -0.352012 -0.437927 0 
-0.330914 -0.403978 0 -0.331547 -0.432063 0 -0.31023 -0.439645 0 
-0.309085 -0.41182 0 -0.288732 -0.400983 0 -0.289105 -0.431824 0 
-0.268376 -0.438149 0 -0.268149 -0.411045 0 -0.245596 -0.410989 0 
-0.24474 -0.436991 0 -0.200838 -0.404079 0 -0.220887 -0.436844 0 
-0.221221 -0.412802 0 -0.168458 -0.399967 0 -0.169321 -0.438354 0 
-0.150806 -0.413789 0 -0.183109 -0.419991 0 -0.197838 -0.438321 0 
-0.127446 -0.409608 0 -0.145111 -0.437609 0 -0.121959 -0.435992 0 
-0.105001 -0.408966 0 -0.0763829 -0.437501 0 -0.0828224 -0.411838 0 
-0.0998934 -0.436726 0 -0.0590245 -0.412666 0 -0.0522421 -0.43736 0 
-0.0303617 -0.435244 0 -0.0377631 -0.406028 0 -0.0160582 -0.410252 0 
-0.00790691 -0.437121 0 0.0060252 -0.408585 0 0.0142907 -0.435963 0 
0.0376115 -0.438044 0 0.0290178 -0.411725 0 0.074214 -0.406018 0 
0.0953852 -0.418117 0 0.0525813 -0.410201 0 0.0821733 -0.438206 0 
0.0604074 -0.434993 0 0.134177 -0.437074 0 0.14821 -0.407238 0 
0.109418 -0.438655 0 0.125318 -0.414275 0 0.156495 -0.436168 0 
0.195079 -0.412241 0 0.180151 -0.437571 0 0.169976 -0.412376 0 
0.228673 -0.438839 0 0.203807 -0.437106 0 0.220122 -0.414181 0 
0.244692 -0.414168 0 0.27387 -0.413763 0 0.277795 -0.438045 0 
0.253771 -0.436949 0 0.297676 -0.414258 0 0.303298 -0.43864 0 
0.323216 -0.417045 0 0.330375 -0.439132 0 0.356611 -0.437943 0 
0.351446 -0.416173 0 0.38185 -0.438238 0 0.383261 -0.416288 0 
0.434184 -0.439975 0 0.435631 -0.406801 0 0.407695 -0.438329 0 
0.414908 -0.417702 0 0.487868 -0.413612 0 0.467914 -0.403516 0 
0.488837 -0.4375 0 0.452187 -0.42302 0 0.46537 -0.439152 0 
0.5125 -0.4125 0 0.5125 -0.4375 0 0.5375 -0.4375 0 
0.5375 -0.4125 0 -0.5375 -0.3625 0 -0.5125 -0.3625 0 
-0.5375 -0.3875 0 -0.5125 -0.3875 0 -0.464604 -0.357562 0 
-0.489485 -0.379915 0 -0.467466 -0.383814 0 -0.48907 -0.352901 0 
-0.442055 -0.350998 0 -0.423791 -0.384645 0 -0.445003 -0.379598 0 
-0.420129 -0.358344 0 -0.400601 -0.385738 0 -0.37699 -0.382812 0 
-0.368853 -0.358691 0 -0.353204 -0.381903 0 -0.396446 -0.360569 0 
-0.310706 -0.383435 0 -0.332497 -0.375328 0 -0.325052 -0.352773 0 
-0.266051 -0.356589 0 -0.271506 -0.381557 0 -0.292517 -0.369689 0 
-0.248706 -0.38518 0 -0.225214 -0.386736 0 -0.241716 -0.360685 0 
-0.21021 -0.370824 0 -0.156323 -0.379563 0 -0.189026 -0.383541 0 
-0.195522 -0.350378 0 -0.174933 -0.363347 0 -0.134188 -0.386175 0 
-0.110621 -0.380812 0 -0.118093 -0.358224 0 -0.142069 -0.358061 0 
-0.0881457 -0.384387 0 -0.085809 -0.359846 0 -0.0649443 -0.38718 0 
-0.0629852 -0.358981 0 -0.0435473 -0.378156 0 -0.0390623 -0.350859 0 
-0.0171655 -0.355149 0 -0.0211861 -0.381789 0 0.00579359 -0.355761 0 
0.0284168 -0.359836 0 0.0247735 -0.384755 0 0.0479714 -0.385345 0 
0.0480866 -0.35045 0 0.00125533 -0.382165 0 0.0838275 -0.384929 0 
0.0636083 -0.370886 0 0.0911625 -0.361305 0 0.134981 -0.386268 0 
0.113144 -0.374982 0 0.138263 -0.358085 0 0.107445 -0.397819 0 
0.156872 -0.376971 0 0.166665 -0.353408 0 0.188141 -0.366077 0 
0.176527 -0.388793 0 0.213205 -0.36389 0 0.22701 -0.389888 0 
0.242393 -0.373329 0 0.202967 -0.388454 0 0.260577 -0.359973 0 
0.276679 -0.38342 0 0.257269 -0.394672 0 0.288521 -0.363098 0 
0.299853 -0.392095 0 0.325311 -0.355857 0 0.330333 -0.396228 0 
0.345191 -0.380178 0 0.314512 -0.374889 0 0.364982 -0.398746 0 
0.399529 -0.373666 0 0.398397 -0.399036 0 0.375847 -0.379444 0 
0.353147 -0.35984 0 0.377598 -0.35486 0 0.448956 -0.385581 0 
0.428046 -0.362717 0 0.421954 -0.386272 0 0.448631 -0.356273 0 
0.406385 -0.35044 0 0.489486 -0.38676 0 0.468631 -0.373665 0 
0.489187 -0.35924 0 0.5375 -0.3875 0 0.5125 -0.3625 0 
0.5375 -0.3625 0 0.5125 -0.3875 0 -0.5375 -0.3375 0 
-0.5375 -0.3125 0 -0.5125 -0.3125 0 -0.5125 -0.3375 0 
-0.466298 -0.304253 0 -0.489219 -0.324237 0 -0.467896 -0.332917 0 
-0.404664 -0.334171 0 -0.402813 -0.308956 0 -0.447397 -0.320666 0 
-0.426226 -0.300873 0 -0.426764 -0.328668 0 -0.380656 -0.337816 0 
-0.377861 -0.313471 0 -0.355767 -0.323511 0 -0.302388 -0.348743 0 
-0.32894 -0.300421 0 -0.331913 -0.326301 0 -0.349075 -0.34895 0 
-0.308628 -0.324058 0 -0.279706 -0.338523 0 -0.26449 -0.312639 0 
-0.287064 -0.31376 0 -0.251294 -0.334195 0 -0.206503 -0.326644 0 
-0.230322 -0.322908 0 -0.244816 -0.301002 0 -0.223078 -0.348597 0 
-0.16046 -0.342529 0 -0.180385 -0.329841 0 -0.197015 -0.303493 0 
-0.17207 -0.307647 0 -0.149089 -0.318163 0 -0.131852 -0.333536 0 
-0.124692 -0.301143 0 -0.101534 -0.341901 0 -0.111643 -0.3194 0 
-0.0662881 -0.303572 0 -0.0894839 -0.309601 0 -0.0781844 -0.331924 0 
-0.0559596 -0.332143 0 -0.00454073 -0.329237 0 -0.0432507 -0.309262 0 