# vtk DataFile Version 4.0
vtk output
ASCII
DATASET POLYDATA
FIELD FieldData 4
domain 1 3 string
domain_min:-20|-15
domain_max:20|15
cell_size:0.05

variables 1 2 string
dt:0.000372678
T:1.07663

constants 1 10 string
xsize:2
ysize:1
csize:0.05
dx:0.0238095
h:0.025
rho0:1000
mass:0.566894
g:1|0
c:13.4164
CFL:0.2

functions 1 8 string
time:T=(T+dt)
continuity:rho_dot=((-(rho*sph_D00(v,mass,rho,Wp52220)))+(((0.1*c)*h)*sph_L00(rho,mass,rho,Wp52220)))
irho:rho=(rho+int1((rho_dot,dt))
EOS:p=(((c^2)*(rho-rho0))+10000)
euler:a=if((gid,(0*v),(((-((1/rho)*sph_G11(p,mass,rho,Wp52220)))+(0.01*sph_L00(v,mass,rho,Wp52220)))+g))
vel:v=(v+int1((a,dt))
pos:r=(r+int1((v,dt))
new_dt:dt=(CFL*min((sqrt(((h/fmax(magnitude((a)))),(h/c)))

POINTS 2798 float
-0.5375 -0.4625 0 -0.5125 -0.4875 0 -0.5125 -0.4625 0 
-0.5375 -0.4875 0 -0.487805 -0.4875 0 -0.487805 -0.4625 0 
-0.463415 -0.4875 0 -0.463415 -0.4625 0 -0.439024 -0.4625 0 
-0.414634 -0.4625 0 -0.414634 -0.4875 0 -0.439024 -0.4875 0 
-0.390244 -0.4625 0 -0.390244 -0.4875 0 -0.365854 -0.4875 0 
-0.365854 -0.4625 0 -0.317073 -0.4625 0 -0.341463 -0.4875 0 
-0.341463 -0.4625 0 -0.317073 -0.4875 0 -0.292683 -0.4875 0 
-0.268293 -0.4625 0 -0.268293 -0.4875 0 -0.292683 -0.4625 0 
-0.243902 -0.4875 0 -0.219512 -0.4875 0 -0.243902 -0.4625 0 
-0.219512 -0.4625 0 -0.195122 -0.4625 0 -0.195122 -0.4875 0 
-0.170732 -0.4875 0 -0.170732 -0.4625 0 -0.121951 -0.4625 0 
-0.121951 -0.4875 0 -0.146341 -0.4625 0 -0.146341 -0.4875 0 
-0.0731707 -0.4625 0 -0.097561 -0.4875 0 -0.0731707 -0.4875 0 
-0.097561 -0.4625 0 -0.0243903 -0.4875 0 -0.0487805 -0.4625 0 
-0.0487805 -0.4875 0 -1.86265e-08 -0.4875 0 -1.86265e-08 -0.4625 0 
-0.0243903 -0.4625 0 0.0487805 -0.4625 0 0.0243902 -0.4625 0 
0.0243902 -0.4875 0 0.0487805 -0.4875 0 0.0731707 -0.4875 0 
0.0731707 -0.4625 0 0.097561 -0.4875 0 0.097561 -0.4625 0 
0.146341 -0.4875 0 0.146341 -0.4625 0 0.121951 -0.4625 0 
0.121951 -0.4875 0 0.195122 -0.4625 0 0.170732 -0.4625 0 
0.195122 -0.4875 0 0.170732 -0.4875 0 0.219512 -0.4875 0 
0.243902 -0.4875 0 0.219512 -0.4625 0 0.243902 -0.4625 0 
0.268293 -0.4875 0 0.292683 -0.4875 0 0.292683 -0.4625 0 
0.268293 -0.4625 0 0.341463 -0.4625 0 0.341463 -0.4875 0 
0.317073 -0.4625 0 0.317073 -0.4875 0 0.365854 -0.4875 0 
0.390244 -0.4625 0 0.390244 -0.4875 0 0.365854 -0.4625 0 
0.414634 -0.4625 0 0.439024 -0.4625 0 0.414634 -0.4875 0 
0.439024 -0.4875 0 0.487805 -0.4875 0 0.487805 -0.4625 0 
0.463415 -0.4875 0 0.463415 -0.4625 0 0.5125 -0.4625 0 
0.5125 -0.4875 0 0.5375 -0.4875 0 0.5375 -0.4625 0 
-0.5375 -0.4125 0 -0.5125 -0.4125 0 -0.5375 -0.4375 0 
-0.5125 -0.4375 0 -0.487326 -0.438329 0 -0.451018 -0.410314 0 
-0.48908 -0.41292 0 -0.46546 -0.432724 0 -0.443391 -0.439315 0 
-0.416291 -0.438151 0 -0.428278 -0.416947 0 -0.374355 -0.409924 0 
-0.3679 -0.436443 0 -0.399576 -0.414618 0 -0.391004 -0.43736 0 
-0.351042 -0.411344 0 -0.326366 -0.411378 0 -0.321152 -0.436886 0 
-0.302808 -0.410072 0 -0.344553 -0.437004 0 -0.252923 -0.437681 0 
-0.298189 -0.43656 0 -0.279711 -0.409026 0 -0.275993 -0.435939 0 
-0.256583 -0.411344 0 -0.234255 -0.405938 0 -0.212382 -0.40831 0 
-0.210272 -0.436569 0 -0.231306 -0.433819 0 -0.162535 -0.438824 0 
-0.165548 -0.413819 0 -0.189408 -0.411954 0 -0.18729 -0.437165 0 
-0.125306 -0.410435 0 -0.120204 -0.438463 0 -0.145868 -0.400838 0 
-0.10304 -0.409996 0 -0.141388 -0.432281 0 -0.0537126 -0.43559 0 
-0.0752039 -0.436105 0 -0.0805328 -0.407835 0 -0.0592863 -0.407256 0 
-0.09721 -0.435877 0 -0.0321208 -0.435845 0 -0.0151654 -0.408112 0 
-0.0373839 -0.408056 0 -0.0104742 -0.436002 0 0.0294655 -0.408559 0 
0.0330703 -0.436156 0 0.00704715 -0.408616 0 0.0113203 -0.436193 0 
0.0555318 -0.43701 0 0.0775632 -0.411408 0 0.0990234 -0.406062 0 
0.0522841 -0.410539 0 0.0784703 -0.435907 0 0.135866 -0.440659 0 
0.117015 -0.424534 0 0.130513 -0.405353 0 0.101507 -0.438875 0 
0.196599 -0.438604 0 0.160736 -0.400777 0 0.181225 -0.418022 0 
0.150938 -0.422434 0 0.168263 -0.43953 0 0.238707 -0.418314 0 
0.211263 -0.417435 0 0.22434 -0.439246 0 0.285725 -0.403076 0 
0.267983 -0.420883 0 0.253198 -0.439694 0 0.283996 -0.440322 0 
0.300174 -0.42327 0 0.317892 -0.406185 0 0.335341 -0.424826 0 
0.31725 -0.440389 0 0.345178 -0.401832 0 0.351753 -0.440253 0 
0.365702 -0.418111 0 0.396144 -0.418461 0 0.379768 -0.438825 0 
0.43462 -0.438083 0 0.40764 -0.438954 0 0.427209 -0.417501 0 
0.445176 -0.401416 0 0.486278 -0.43952 0 0.462375 -0.415494 0 
0.487223 -0.41675 0 0.459107 -0.438108 0 0.5375 -0.4125 0 
0.5375 -0.4375 0 0.5125 -0.4125 0 0.5125 -0.4375 0 
-0.5125 -0.3875 0 -0.5375 -0.3875 0 -0.5125 -0.3625 0 
-0.5375 -0.3625 0 -0.474576 -0.364667 0 -0.455185 -0.378205 0 
-0.490319 -0.38246 0 -0.470999 -0.399441 0 -0.412485 -0.3954 0 
-0.448536 -0.352497 0 -0.425903 -0.363212 0 -0.434695 -0.387689 0 
-0.402804 -0.372732 0 -0.350221 -0.387013 0 -0.384573 -0.354914 0 
-0.366535 -0.372059 0 -0.35065 -0.353248 0 -0.383751 -0.388919 0 
-0.305706 -0.358485 0 -0.326571 -0.385787 0 -0.329576 -0.361469 0 
-0.302688 -0.384135 0 -0.256084 -0.384869 0 -0.281866 -0.356863 0 
-0.279344 -0.382773 0 -0.258009 -0.358566 0 -0.235701 -0.350838 0 
-0.21191 -0.380947 0 -0.233824 -0.378126 0 -0.213909 -0.352685 0 
-0.188823 -0.386806 0 -0.166072 -0.385845 0 -0.168817 -0.358282 0 
-0.19136 -0.360459 0 -0.108752 -0.356902 0 -0.127909 -0.381069 0 
-0.105913 -0.3836 0 -0.146922 -0.368208 0 -0.0859079 -0.353043 0 
-0.0621783 -0.378263 0 -0.0836492 -0.380249 0 -0.0186093 -0.380617 0 
-0.0204624 -0.353444 0 -0.0407488 -0.380492 0 -0.0427387 -0.35252 0 
0.0472586 -0.35608 0 0.0253479 -0.381241 0 0.00345255 -0.380908 0 
0.0245028 -0.353632 0 0.0475947 -0.382734 0 0.00217064 -0.353481 0 
0.0696119 -0.358428 0 0.0901715 -0.376369 0 0.0701022 -0.387055 0 
0.130745 -0.360829 0 0.139624 -0.384079 0 0.112203 -0.385441 0 
0.10879 -0.35748 0 0.195693 -0.398462 0 0.175919 -0.383219 0 
0.157526 -0.367062 0 0.190959 -0.364194 0 0.227363 -0.395981 0 
0.21098 -0.37888 0 0.229367 -0.360679 0 0.245403 -0.376593 0 
0.294307 -0.363695 0 0.25583 -0.398911 0 0.274191 -0.38097 0 
0.26543 -0.358644 0 0.328016 -0.381384 0 0.303582 -0.385492 0 
0.345099 -0.363721 0 0.318565 -0.356714 0 0.359875 -0.383795 0 
0.398943 -0.351267 0 0.398495 -0.380432 0 0.379717 -0.399029 0 
0.378768 -0.367623 0 0.411545 -0.399096 0 0.41991 -0.362056 0 
0.431176 -0.381667 0 0.46411 -0.385605 0 0.487788 -0.394211 0 
0.451651 -0.365625 0 0.484966 -0.371052 0 0.5125 -0.3875 0 
0.5375 -0.3875 0 0.5375 -0.3625 0 0.5125 -0.3625 0 
-0.5375 -0.3375 0 -0.5375 -0.3125 0 -0.5125 -0.3125 0 
-0.5125 -0.3375 0 -0.488382 -0.31973 0 -0.490542 -0.348035 0 
-0.468223 -0.304521 0 -0.467706 -0.336044 0 -0.40648 -0.344275 0 
-0.449044 -0.320521 0 -0.412175 -0.315521 0 -0.429354 -0.334917 0 
-0.432673 -0.302216 0 -0.371926 -0.305459 0 -0.350656 -0.31957 0 
-0.36867 -0.336257 0 -0.390003 -0.323473 0 -0.322256 -0.308072 0 
-0.331954 -0.333787 0 -0.308884 -0.333417 0 -0.300344 -0.30515 0 
-0.285884 -0.330761 0 -0.275655 -0.307102 0 -0.261951 -0.332837 0 
-0.252981 -0.302945 0 -0.218348 -0.321711 0 -0.239612 -0.324638 0 
-0.174731 -0.332462 0 -0.197736 -0.332409 0 -0.150937 -0.337159 0 
-0.191626 -0.306171 0 -0.166692 -0.308302 0 -0.124821 -0.323521 0 
-0.110029 -0.302037 0 -0.129909 -0.349288 0 -0.102452 -0.330011 0 
-0.144355 -0.310445 0 -0.064559 -0.349322 0 -0.0596739 -0.322107 0 
-0.0817452 -0.322844 0 -0.0183036 -0.300575 0 -0.015755 -0.326739 0 
-0.0380364 -0.325204 0 0.0297893 -0.326867 0 0.0304679 -0.300598 0 
0.00598457 -0.301153 0 0.00708601 -0.326693 0 0.0530278 -0.30426 0 
0.0913215 -0.307018 0 0.0880711 -0.345062 0 0.0737918 -0.324363 0 
0.0528562 -0.331316 0 0.105385 -0.326912 0 0.127385 -0.333631 0 
0.123684 -0.306535 0 0.148382 -0.314413 0 0.170861 -0.317643 0 
0.150196 -0.340936 0 0.173408 -0.346615 0 0.192007 -0.330241 0 
0.209787 -0.313003 0 0.248645 -0.342527 0 0.209291 -0.347287 0 
0.246196 -0.31152 0 0.228088 -0.330162 0 0.284274 -0.340603 0 
0.26721 -0.324613 0 0.284284 -0.308904 0 0.337395 -0.33893 0 
0.332729 -0.315487 0 0.307724 -0.335272 0 0.30795 -0.312635 0 
0.358441 -0.322755 0 0.36467 -0.348385 0 0.383106 -0.331939 0 
0.389708 -0.309392 0 0.364695 -0.300623 0 0.428053 -0.314326 0 
0.410379 -0.328998 0 0.433387 -0.343418 0 0.483103 -0.327258 0 
0.462143 -0.30808 0 0.463686 -0.347638 0 0.48925 -0.349273 0 
0.451146 -0.326632 0 0.488991 -0.305849 0 0.5125 -0.3375 0 
0.5125 -0.3125 0 0.5375 -0.3125 0 0.5375 -0.3375 0 
-0.5125 -0.2875 0 -0.5375 -0.2625 0 -0.5125 -0.2625 0 
-0.5375 -0.2875 0 -0.473553 -0.274313 0 -0.4898 -0.258024 0 
-0.450502 -0.286123 0 -0.490111 -0.291169 0 -0.454226 -0.258136 0 
-0.413895 -0.285283 0 -0.407043 -0.25666 0 -0.430388 -0.268463 0 
-0.387398 -0.26795 0 -0.351306 -0.263006 0 -0.365747 -0.281084 0 
-0.393329 -0.293961 0 -0.30661 -0.251544 0 -0.305323 -0.279141 0 
-0.327787 -0.278657 0 -0.329675 -0.252511 0 -0.344066 -0.295341 0 
-0.284089 -0.255653 0 -0.259152 -0.276435 0 -0.281585 -0.281732 0 
-0.238954 -0.265947 0 -0.211356 -0.294812 0 -0.217321 -0.263876 0 
-0.232452 -0.292672 0 -0.152412 -0.280347 0 -0.196517 -0.273259 0 
-0.152687 -0.253721 0 -0.175579 -0.256801 0 -0.175204 -0.284127 0 
-0.110192 -0.273409 0 -0.130373 -0.260068 0 -0.130954 -0.289139 0 
-0.0635017 -0.269613 0 -0.0644273 -0.295159 0 -0.087985 -0.297277 0 
-0.0876334 -0.271037 0 -0.0166843 -0.275059 0 -0.0413478 -0.297291 0 
-0.0398638 -0.270802 0 0.00765177 -0.276437 0 0.0336883 -0.250061 0 
0.00950366 -0.251638 0 0.0324365 -0.275451 0 0.0546692 -0.273891 0 
0.0903335 -0.27369 0 0.0725112 -0.291716 0 0.0717567 -0.257163 0 
0.1441 -0.289313 0 0.129096 -0.272301 0 0.142713 -0.251768 0 
0.108887 -0.288633 0 0.11062 -0.256893 0 0.197912 -0.27804 0 
0.168483 -0.28977 0 0.162133 -0.266726 0 0.1839 -0.25915 0 
0.190583 -0.299126 0 0.236525 -0.250205 0 0.210797 -0.252292 0 
0.226968 -0.297261 0 0.246666 -0.2741 0 0.222006 -0.275263 0 
0.297249 -0.262448 0 0.268861 -0.263325 0 0.260855 -0.293044 0 
0.284718 -0.28383 0 0.33919 -0.29349 0 0.322937 -0.270524 0 
[...]
POINT_DATA 2798
SCALARS id float
LOOKUP_TABLE default
2601 2620 2621 2600 2640 2641 2642 2643 2645 
2647 2646 2644 2649 2648 2650 2651 2655 2652 
2653 2654 2656 2659 2658 2657 2660 2662 2661 
2663 2665 2664 2666 2667 2671 2670 2669 2668 
2675 2672 2674 2673 2678 2677 2676 2680 2681 
2679 2685 2683 2682 2684 2686 2687 2688 2689 
2692 2693 2691 2690 2697 2695 2696 2694 2698 
2700 2699 2701 2702 2704 2705 2703 2709 2708 
2707 2706 2710 2713 2712 2711 2715 2717 2714 
2716 2720 2721 2718 2719 2723 2722 2742 2743 
2603 2623 2602 2622 1660 1697 1661 1678 1696 
1714 1715 1787 1768 1750 1732 1805 1823 1804 
1841 1786 1858 1822 1859 1840 1877 1895 1913 
1894 1876 1930 1949 1931 1912 1985 1966 1967 
2003 1948 2020 2002 2021 2039 1984 2038 2075 
2057 2056 2111 2092 2093 2074 2110 2147 2166 
2129 2128 2164 2165 2184 2146 2200 2202 2201 
2183 2182 2237 2219 2218 2274 2255 2236 2254 
2273 2292 2291 2272 2310 2290 2309 2327 2308 
2344 2326 2345 2364 2380 2363 2381 2362 2745 
2744 2725 2724 2624 2604 2625 2605 1680 1698 
1662 1679 1733 1717 1734 1716 1751 1806 1770 
1788 1807 1769 1843 1824 1825 1842 1878 1861 
1860 1879 1897 1914 1896 1915 1932 1950 1951 
1933 2005 1986 2004 1968 2023 2040 2022 2076 
2077 2058 2059 2131 2112 2094 2113 2130 2095 
2149 2167 2148 2204 2203 2185 2186 2220 2221 
2222 2240 2238 2239 2258 2257 2294 2256 2275 
2276 2311 2293 2312 2295 2329 2331 2347 2328 
2330 2346 2348 2365 2383 2382 2366 2384 2726 
2746 2747 2727 2606 2607 2627 2626 1681 1663 
1700 1699 1752 1718 1753 1735 1736 1790 1808 
1789 1771 1845 1826 1844 1863 1862 1881 1880 
1899 1916 1898 1952 1934 1969 1953 1970 2006 
2025 1987 2024 1988 2041 2060 2042 2097 2096 
2078 2132 2133 2115 2114 2151 2188 2168 2169 
2150 2187 2205 2189 2190 2207 2206 2223 2224 
2225 2259 2241 2243 2242 2277 2260 2261 2296 
2297 2278 2279 2314 2313 2332 2333 2315 2351 
2350 2349 2386 2369 2367 2385 2368 2387 2728 
2729 2749 2748 2628 2609 2629 2608 1682 1665 
1719 1664 1701 1754 1773 1737 1791 1828 1809 
1772 1865 1864 1846 1847 1827 1883 1900 1882 
1918 1935 1936 1917 1989 1954 1990 1972 1971 
2026 2008 2007 2062 2061 2043 2044 2098 2079 
2080 2116 2135 2117 2134 2152 2171 2170 2153 
2173 2155 2139 2172 2154 2174 2191 2156 2140 
2208 2192 2157 2226 2227 2209 2263 2245 2244 
2262 2298 2281 2280 2264 2316 2299 2282 2300 
2317 2335 2334 2352 2389 2353 2370 2388 2731 
2730 2751 2750 2631 2610 2611 2630 1684 1666 
1667 1683 1720 1702 1738 1774 1755 1811 1830 
1829 1792 1810 1866 1848 1902 1884 1901 1885 
1919 1920 1937 1938 1991 1955 1974 1956 1973 
2009 2010 2027 1992 2045 2046 2063 2028 2082 
2081 2064 2099 2101 2118 2100 2136 2120 2119 
2104 2137 2105 2138 2121 2122 2123 2071 2089 
2052 2141 2158 2053 2177 2228 2175 2193 2210 
2194 2246 2211 2265 2247 2212 2229 2266 2318 
2336 2283 2284 2390 2371 2354 2372 2752 2753 
2732 2733 2632 2613 2612 2633 1668 1703 1685 
1721 1739 1756 1757 1794 1775 1793 1832 1812 
1831 1813 1849 1867 1869 1868 1904 1903 1939 
1921 1940 1922 1957 1975 1976 1977 1995 1994 
2011 1993 2012 2030 2047 2029 2013 2048 2065 
2014 2083 2066 2103 2102 2067 2049 2084 2068 
2050 2086 2085 2087 2033 2069 2106 2051 2088 
2070 2034 1839 1857 2036 2000 2035 2159 2107 
2176 1821 2054 2124 1893 2072 1929 2125 2018 
2248 2195 2142 2230 2267 2231 2391 2355 2337 
2734 2755 2754 2735 2614 2634 2615 2635 1686 
1722 1704 1740 1669 1758 1759 1776 1777 1795 
1814 1778 1815 1850 1833 1851 1834 1816 1870 
1886 1817 1923 1887 1924 1871 1905 1941 1958 
1835 1960 1925 1943 1959 1996 1944 1978 1927 
1961 2031 1874 1979 80 1997 1962 1945 2015 
1980 2032 1785 2016 1998 1963 1999 160 2017 
1820 1981 1964 1803 1600 1982 1361 180 1 
1928 40 1946 1561 1541 1838 1911 140 21 
120 1522 1581 340 1362 1441 1875 280 2301 
2090 2373 2737 2757 2756 2736 2637 2617 2636 
2616 1670 1705 1687 1723 1741 1743 1760 1742 
1761 1744 1796 1762 1727 1780 1779 1726 1100 
1781 1745 1140 1797 1798 1852 1763 1711 1906 
1746 1728 1799 1888 1695 1783 1889 1942 1909 
1890 1853 1926 1908 1856 1801 1748 1819 1837 
1818 1892 1891 1560 1380 1749 1873 1713 1910 
1731 1241 1261 1802 1540 1181 1520 1580 1141 
1420 1281 1201 100 1301 1161 1460 20 1122 
60 1521 1221 1341 1481 1620 1183 320 0 
2213 1461 2739 2758 2759 2738 2567 2565 2564 
2566 2571 2570 2568 2569 2573 2574 2575 2572 
2577 2579 2578 2576 2582 2580 2581 2583 2587 
2585 2586 2584 2588 2590 2591 2589 2594 2595 
2592 2593 2598 2597 2596 2599 2639 2618 2619 
2638 1671 1688 1706 1724 1707 1708 1672 1725 
1689 2361 1673 1691 1710 1674 1020 1676 1120 
1675 1709 762 2397 1080 542 1180 820 1060 
900 1220 601 780 1872 1693 1160 1764 1855 
1907 1280 1854 1836 1765 1729 1694 1300 1500 
881 1730 1747 1360 1784 1712 1001 861 1040 
802 1767 1480 1766 1440 1320 1041 1101 862 
1081 1061 1400 941 1121 981 1062 1102 942 
1082 1142 1321 1202 1282 2285 1242 1401 2741 
2740 2761 2760 2763 2765 2764 2762 2768 2766 
2769 2767 2772 2770 2771 2773 2776 2777 2775 
2774 2780 2779 2781 2778 2783 2782 2784 2785 
2787 2786 2789 2788 2790 2792 2793 2791 2796 
2794 2797 2795 2179 2108 2251 2303 161 2374 
2234 41 2357 2198 2252 2339 2233 2180 2375 
2305 2393 2216 1983 2321 2055 2323 2358 2304 
2287 2359 2376 2270 2109 2163 2395 2394 2360 
500 2235 2269 2306 2377 640 2396 341 2341 
2253 2342 2324 840 2307 2271 2199 2217 2325 
2145 461 800 680 2343 660 2378 421 362 
1690 860 700 481 620 561 2289 462 761 
720 2379 442 501 422 482 521 721 1692 
541 920 1800 1200 443 661 463 880 621 
1782 681 722 1340 701 1677 682 1240 1260 
641 940 960 980 703 921 1000 822 801 
901 782 742 783 763 803 723 961 1002 
823 843 804 922 962 1021 883 1222 1043 
1063 982 1262 1182 2178 1640 2319 1601 1243 
220 1203 1381 1184 2249 2160 1322 1421 2338 
2302 1947 260 1402 2392 1342 1502 240 2143 
1382 2232 2320 2214 1303 2356 1523 1283 1582 
2250 300 2161 201 2126 2215 1344 1641 1383 
1544 1463 1462 1423 200 1563 1602 1404 1503 
162 1564 61 141 1443 81 2162 42 2197 
143 182 360 2268 2144 23 83 2019 2037 
2286 1644 2073 84 2001 1643 163 440 2340 
480 380 2322 2091 460 104 400 520 281 
2127 420 2288 223 261 241 105 2181 441 
321 580 560 302 600 282 301 263 262 
540 381 283 740 361 264 342 363 401 
402 303 382 323 383 324 343 403 404 
364 423 760 581 483 522 562 602 583 
502 582 622 702 563 544 683 662 781 
643 642 841 741 821 623 664 663 684 
704 744 743 645 764 903 824 882 842 
923 785 902 863 1022 864 844 943 1042 
1163 1083 884 1543 1103 1023 963 1162 1024 
1123 1003 1044 1621 1143 1064 1223 1144 1204 
1542 181 1124 1263 1185 1302 1164 1145 1105 
1106 2196 1562 1501 1224 1483 1363 1482 1422 
1284 1343 1323 1226 1304 1364 1403 1265 1285 
1324 1384 1365 1424 1366 1345 1385 1642 1444 
1524 1346 1464 121 1622 1583 1405 1965 2 
1545 142 103 82 3 102 122 1623 1604 
22 63 1605 123 1565 1624 4 1625 43 
62 44 64 25 221 26 144 124 45 
27 222 65 85 183 242 203 164 165 
184 204 243 244 147 146 224 166 186 
205 225 185 206 245 226 284 322 344 
305 304 325 285 384 365 345 346 385 
424 405 425 444 523 503 464 484 543 
485 505 524 504 564 584 603 624 565 
644 585 604 625 605 665 626 705 646 
724 685 686 725 784 765 825 786 745 
805 845 766 806 787 826 865 904 983 
924 885 905 1045 964 925 944 1025 945 
984 1004 965 1104 1084 985 1085 1065 1066 
1086 1046 1125 1126 1442 1087 1205 1264 1244 
1165 1186 1225 1128 1147 1245 1167 1187 1227 
1207 1206 1247 1246 1266 1228 1305 1286 1325 
1267 1326 1307 1386 1306 1347 1406 1387 1367 
1425 1445 1484 1584 1426 1485 1504 1465 1603 
1486 1525 1467 101 1546 1506 1505 1585 1526 
1586 1547 1566 1567 1645 1626 1606 24 5 
6 1627 1647 1646 47 7 46 66 8 
67 202 87 86 125 88 145 106 107 
108 126 127 167 187 148 188 265 227 
207 246 286 266 247 267 306 287 326 
386 307 327 366 347 387 407 367 406 
426 445 427 465 446 447 467 466 486 
525 487 506 545 526 547 566 546 567 
606 607 586 587 627 628 647 667 706 
707 687 666 726 746 727 767 747 768 
846 827 808 788 807 886 867 866 847 
888 908 907 906 887 947 927 946 926 
966 986 967 987 1005 1026 1006 1047 1067 
1089 1088 1068 1166 1108 1107 1146 1149 1129 
1130 1148 1168 1189 1208 1188 1229 1209 1248 
1269 1249 1287 1268 1309 1288 1327 1289 1308 
1329 1348 1368 1349 1328 1408 1388 1427 1407 
1446 1428 1447 1466 1468 1448 1449 1488 1507 
1487 1489 1527 1508 1548 1528 1588 1587 1568 
1628 1609 1608 1607 1629 9 1649 1648 10 
29 48 28 49 70 90 69 68 89 
109 129 110 168 149 128 169 209 189 
208 228 248 229 249 268 269 288 289 
328 329 309 308 349 368 369 388 348 
408 409 389 429 428 448 449 469 468 
489 508 488 507 527 549 548 528 589 
568 588 569 608 609 629 648 669 668 
649 688 689 729 708 728 709 749 769 
748 809 828 789 790 829 868 849 848 
869 890 889 928 910 929 909 988 969 
968 949 948 1027 1007 989 1008 1028 1048 
1049 1029 1069 1127 1090 1110 1109 1132 1131 
1112 1150 1190 1169 1191 1170 1151 1231 1210 
1211 1230 1250 1270 1271 1251 1311 1290 1291 
1310 1351 1350 1331 1330 1389 1369 1371 1370 
1390 1391 1411 1409 1429 1410 1430 1431 1451 
1469 1450 1470 1471 1490 1509 1491 1511 1531 
1529 1549 1510 1530 1570 1569 1550 1551 1589 
1590 1611 1610 1650 1651 1631 1630 11 51 
30 31 50 91 72 92 71 111 130 
112 131 151 170 171 150 210 190 191 
211 251 230 250 231 270 291 271 290 
331 311 330 310 350 351 370 371 410 
390 411 431 451 471 450 430 470 509 
510 491 490 529 550 551 530 591 571 
590 570 610 630 631 611 651 671 650 
670 710 690 691 711 751 750 731 730 
770 810 771 791 811 850 851 831 830 
870 891 892 871 911 931 930 912 970 
971 951 950 990 1010 991 1009 1011 1030 
1031 1051 1050 1071 1070 1091 1092 1111 1113 
1133 1134 1114 1171 1153 1152 1172 1233 1232 
1192 1213 1212 1253 1272 1273 1252 1312 1313 
1293 1292 1332 1353 1333 1352 1373 1393 1372 
1392 1413 1433 1412 1432 1452 1472 1453 1473 
1493 1513 1492 1512 1532 1553 1552 1533 1593 
1571 1592 1572 1613 1633 1612 1591 1652 1653 
1632 52 12 32 33 53 13 94 93 
73 133 113 132 152 172 153 173 192 
212 213 193 252 232 253 233 273 272 
313 293 292 333 312 353 332 373 392 
393 352 372 391 433 412 432 413 473 
453 472 452 493 511 492 512 532 552 
531 553 572 593 573 592 633 632 612 
613 673 652 672 653 692 713 712 693 
732 753 752 733 813 792 793 773 812 
772 832 833 852 853 894 873 872 893 
914 913 932 933 973 972 953 952 1013 
992 1012 993 1053 1052 1032 1033 1093 1072 
1073 1135 1174 1155 1154 1175 1193 1194 1173 
1195 1215 1214 1235 1234 1255 1254 1274 1275 
1315 1314 1294 1295 1354 1335 1355 1334 1394 
1374 1395 1375 1414 1415 1434 1435 1455 1474 
1454 1475 1515 1514 1494 1495 1554 1535 1555 
1534 1573 1594 1595 1575 1574 1634 1635 1614 
1615 1654 1655 14 15 35 54 34 55 
74 95 75 134 135 114 115 155 154 
175 174 195 214 235 194 215 234 255 
275 254 294 295 315 314 274 334 354 
355 335 375 395 394 374 414 434 415 
435 474 475 454 455 495 513 515 514 
494 555 533 534 554 575 595 594 574 
634 615 614 635 655 654 674 675 714 
715 694 695 735 734 755 754 775 774 
795 815 814 794 854 835 834 855 895 
874 875 916 935 955 934 915 995 974 
975 954 994 1035 1014 1015 1054 1055 1034 
1075 1074 1094 1136 1115 1095 1156 1177 1176 
1197 1237 1196 1216 1217 1236 1257 1256 1277 
1317 1297 1276 1337 1357 1296 1316 1336 1356 
1377 1397 1376 1417 1437 1396 1416 1436 1477 
1457 1456 1497 1517 1476 1537 1516 1496 1557 
1556 1536 1577 1597 1637 1617 1576 1596 1657 
1636 17 1616 1656 57 37 16 56 97 
77 36 96 117 76 137 157 116 156 
197 177 136 196 237 176 217 216 236 
277 257 317 297 276 256 357 337 296 
316 377 336 397 376 417 356 437 416 
396 477 456 497 436 457 476 517 537 
496 516 536 557 577 535 556 617 597 
576 637 596 657 636 616 697 677 656 
737 676 717 736 777 757 696 716 797 
817 756 776 837 857 816 796 897 856 
836 877 917 876 957 896 937 956 936 
977 997 976 996 1017 1037 1016 1036 1057 
1076 1077 1097 1056 1117 1096 1157 1116 1137 
359 1418 379 1398 399 419 1438 1458 1478 
459 439 1498 499 1538 519 1518 479 559 
1558 1578 539 1598 579 599 1618 1638 1658 
619 639 679 18 659 38 699 78 58 
719 118 739 759 98 779 138 799 819 
158 839 859 178 198 218 899 879 238 
939 919 278 258 298 959 338 979 318 
999 1019 358 1039 378 1079 418 1059 398 
458 1119 1099 438 478 518 498 1139 1159 
538 1199 558 1179 1239 578 598 1219 1279 
618 1259 638 658 1299 678 1319 718 1359 
1339 698 1399 738 1379 758 778 798 1439 
1419 1459 838 1479 818 1519 1499 858 878 
1559 1539 898 918 938 1579 1599 978 958 
1639 998 1018 1619 1058 1659 19 1038 39 
1098 59 1078 79 99 1118 1138 1158 1178 
139 119 159 179 1198 1218 199 1258 219 
1238 1298 1278 259 239 299 1318 279 1338 
1378 339 319 1358 2400 2399 2398 2401 2404 
2403 2405 2402 2407 2409 2408 2406 2411 2413 
2412 2410 2417 2415 2416 2414 2421 2419 2420 
2418 2426 2427 2422 2423 2425 2424 2431 2428 
2430 2429 2435 2432 2433 2434 2436 2438 2439 
2437 2440 2441 2443 2442 2444 2447 2446 2445 
2448 2451 2450 2449 2455 2453 2454 2452 2456 
2459 2458 2457 2463 2461 2460 2462 2467 2465 
2464 2466 2469 2468 2470 2471 2473 2472 2474 
2475 2478 2476 2481 2477 2480 2479 2485 2484 
2483 2482 2487 2488 2486 2489 2493 2492 2490 
2491 2497 2496 2495 2494 2499 2498 2501 2500 
2502 2505 2503 2504 2509 2508 2507 2506 2511 
2510 2513 2512 2516 2514 2515 2517 2520 2518 
2521 2519 2525 2522 2523 2524 2527 2528 2529 
2526 2532 2533 2531 2530 2534 2535 2536 2537 
2538 2539 2542 2543 2540 2541 2544 2545 2546 
2547 2548 2551 2550 2549 2554 2555 2553 2552 
2558 2556 2557 2559 2560 2561 2562 2563 
FIELD FieldData 7
r 3 2798 float
-0.5375 -0.4625 0 -0.5125 -0.4875 0 -0.5125 -0.4625 0 
-0.5375 -0.4875 0 -0.487805 -0.4875 0 -0.487805 -0.4625 0 
-0.463415 -0.4875 0 -0.463415 -0.4625 0 -0.439024 -0.4625 0 
-0.414634 -0.4625 0 -0.414634 -0.4875 0 -0.439024 -0.4875 0 
-0.390244 -0.4625 0 -0.390244 -0.4875 0 -0.365854 -0.4875 0 
-0.365854 -0.4625 0 -0.317073 -0.4625 0 -0.341463 -0.4875 0 
-0.341463 -0.4625 0 -0.317073 -0.4875 0 -0.292683 -0.4875 0 
-0.268293 -0.4625 0 -0.268293 -0.4875 0 -0.292683 -0.4625 0 
-0.243902 -0.4875 0 -0.219512 -0.4875 0 -0.243902 -0.4625 0 
-0.219512 -0.4625 0 -0.195122 -0.4625 0 -0.195122 -0.4875 0 
-0.170732 -0.4875 0 -0.170732 -0.4625 0 -0.121951 -0.4625 0 
-0.121951 -0.4875 0 -0.146341 -0.4625 0 -0.146341 -0.4875 0 
-0.0731707 -0.4625 0 -0.097561 -0.4875 0 -0.0731707 -0.4875 0 
-0.097561 -0.4625 0 -0.0243903 -0.4875 0 -0.0487805 -0.4625 0 
-0.0487805 -0.4875 0 -1.86265e-08 -0.4875 0 -1.86265e-08 -0.4625 0 
-0.0243903 -0.4625 0 0.0487805 -0.4625 0 0.0243902 -0.4625 0 
0.0243902 -0.4875 0 0.0487805 -0.4875 0 0.0731707 -0.4875 0 
0.0731707 -0.4625 0 0.097561 -0.4875 0 0.097561 -0.4625 0 
0.146341 -0.4875 0 0.146341 -0.4625 0 0.121951 -0.4625 0 
0.121951 -0.4875 0 0.195122 -0.4625 0 0.170732 -0.4625 0 
0.195122 -0.4875 0 0.170732 -0.4875 0 0.219512 -0.4875 0 
0.243902 -0.4875 0 0.219512 -0.4625 0 0.243902 -0.4625 0 
0.268293 -0.4875 0 0.292683 -0.4875 0 0.292683 -0.4625 0 
0.268293 -0.4625 0 0.341463 -0.4625 0 0.341463 -0.4875 0 
0.317073 -0.4625 0 0.317073 -0.4875 0 0.365854 -0.4875 0 
0.390244 -0.4625 0 0.390244 -0.4875 0 0.365854 -0.4625 0 
0.414634 -0.4625 0 0.439024 -0.4625 0 0.414634 -0.4875 0 
0.439024 -0.4875 0 0.487805 -0.4875 0 0.487805 -0.4625 0 
0.463415 -0.4875 0 0.463415 -0.4625 0 0.5125 -0.4625 0 
0.5125 -0.4875 0 0.5375 -0.4875 0 0.5375 -0.4625 0 
-0.5375 -0.4125 0 -0.5125 -0.4125 0 -0.5375 -0.4375 0 
-0.5125 -0.4375 0 -0.487326 -0.438329 0 -0.451018 -0.410314 0 
-0.48908 -0.41292 0 -0.46546 -0.432724 0 -0.443391 -0.439315 0 
-0.416291 -0.438151 0 -0.428278 -0.416947 0 -0.374355 -0.409924 0 
-0.3679 -0.436443 0 -0.399576 -0.414618 0 -0.391004 -0.43736 0 
-0.351042 -0.411344 0 -0.326366 -0.411378 0 -0.321152 -0.436886 0 
-0.302808 -0.410072 0 -0.344553 -0.437004 0 -0.252923 -0.437681 0 
-0.298189 -0.43656 0 -0.279711 -0.409026 0 -0.275993 -0.435939 0 
-0.256583 -0.411344 0 -0.234255 -0.405938 0 -0.212382 -0.40831 0 
-0.210272 -0.436569 0 -0.231306 -0.433819 0 -0.162535 -0.438824 0 
-0.165548 -0.413819 0 -0.189408 -0.411954 0 -0.18729 -0.437165 0 
-0.125306 -0.410435 0 -0.120204 -0.438463 0 -0.145868 -0.400838 0 
-0.10304 -0.409996 0 -0.141388 -0.432281 0 -0.0537126 -0.43559 0 
-0.0752039 -0.436105 0 -0.0805328 -0.407835 0 -0.0592863 -0.407256 0 
-0.09721 -0.435877 0 -0.0321208 -0.435845 0 -0.0151654 -0.408112 0 
-0.0373839 -0.408056 0 -0.0104742 -0.436002 0 0.0294655 -0.408559 0 
0.0330703 -0.436156 0 0.00704715 -0.408616 0 0.0113203 -0.436193 0 
0.0555318 -0.43701 0 0.0775632 -0.411408 0 0.0990234 -0.406062 0 
0.0522841 -0.410539 0 0.0784703 -0.435907 0 0.135866 -0.440659 0 
0.117015 -0.424534 0 0.130513 -0.405353 0 0.101507 -0.438875 0 
0.196599 -0.438604 0 0.160736 -0.400777 0 0.181225 -0.418022 0 
0.150938 -0.422434 0 0.168263 -0.43953 0 0.238707 -0.418314 0 
0.211263 -0.417435 0 0.22434 -0.439246 0 0.285725 -0.403076 0 
0.267983 -0.420883 0 0.253198 -0.439694 0 0.283996 -0.440322 0 
0.300174 -0.42327 0 0.317892 -0.406185 0 0.335341 -0.424826 0 
0.31725 -0.440389 0 0.345178 -0.401832 0 0.351753 -0.440253 0 
0.365702 -0.418111 0 0.396144 -0.418461 0 0.379768 -0.438825 0 
0.43462 -0.438083 0 0.40764 -0.438954 0 0.427209 -0.417501 0 
0.445176 -0.401416 0 0.486278 -0.43952 0 0.462375 -0.415494 0 
0.487223 -0.41675 0 0.459107 -0.438108 0 0.5375 -0.4125 0 
0.5375 -0.4375 0 0.5125 -0.4125 0 0.5125 -0.4375 0 
-0.5125 -0.3875 0 -0.5375 -0.3875 0 -0.5125 -0.3625 0 
-0.5375 -0.3625 0 -0.474576 -0.364667 0 -0.455185 -0.378205 0 
-0.490319 -0.38246 0 -0.470999 -0.399441 0 -0.412485 -0.3954 0 
-0.448536 -0.352497 0 -0.425903 -0.363212 0 -0.434695 -0.387689 0 
-0.402804 -0.372732 0 -0.350221 -0.387013 0 -0.384573 -0.354914 0 
-0.366535 -0.372059 0 -0.35065 -0.353248 0 -0.383751 -0.388919 0 
-0.305706 -0.358485 0 -0.326571 -0.385787 0 -0.329576 -0.361469 0 
-0.302688 -0.384135 0 -0.256084 -0.384869 0 -0.281866 -0.356863 0 
-0.279344 -0.382773 0 -0.258009 -0.358566 0 -0.235701 -0.350838 0 
-0.21191 -0.380947 0 -0.233824 -0.378126 0 -0.213909 -0.352685 0 
-0.188823 -0.386806 0 -0.166072 -0.385845 0 -0.168817 -0.358282 0 
-0.19136 -0.360459 0 -0.108752 -0.356902 0 -0.127909 -0.381069 0 
-0.105913 -0.3836 0 -0.146922 -0.368208 0 -0.0859079 -0.353043 0 
-0.0621783 -0.378263 0 -0.0836492 -0.380249 0 -0.0186093 -0.380617 0 
-0.0204624 -0.353444 0 -0.0407488 -0.380492 0 -0.0427387 -0.35252 0 
0.0472586 -0.35608 0 0.0253479 -0.381241 0 0.00345255 -0.380908 0 
0.0245028 -0.353632 0 0.0475947 -0.382734 0 0.00217064 -0.353481 0 
0.0696119 -0.358428 0 0.0901715 -0.376369 0 0.0701022 -0.387055 0 
0.130745 -0.360829 0 0.139624 -0.384079 0 0.112203 -0.385441 0 
0.10879 -0.35748 0 0.195693 -0.398462 0 0.175919 -0.383219 0 
0.157526 -0.367062 0 0.190959 -0.364194 0 0.227363 -0.395981 0 
0.21098 -0.37888 0 0.229367 -0.360679 0 0.245403 -0.376593 0 
0.294307 -0.363695 0 0.25583 -0.398911 0 0.274191 -0.38097 0 
0.26543 -0.358644 0 0.328016 -0.381384 0 0.303582 -0.385492 0 
0.345099 -0.363721 0 0.318565 -0.356714 0 0.359875 -0.383795 0 
0.398943 -0.351267 0 0.398495 -0.380432 0 0.379717 -0.399029 0 
0.378768 -0.367623 0 0.411545 -0.399096 0 0.41991 -0.362056 0 
0.431176 -0.381667 0 0.46411 -0.385605 0 0.487788 -0.394211 0 
0.451651 -0.365625 0 0.484966 -0.371052 0 0.5125 -0.3875 0 
0.5375 -0.3875 0 0.5375 -0.3625 0 0.5125 -0.3625 0 
-0.5375 -0.3375 0 -0.5375 -0.3125 0 -0.5125 -0.3125 0 
-0.5125 -0.3375 0 -0.488382 -0.31973 0 -0.490542 -0.348035 0 
-0.468223 -0.304521 0 -0.467706 -0.336044 0 -0.40648 -0.344275 0 
-0.449044 -0.320521 0 -0.412175 -0.315521 0 -0.429354 -0.334917 0 
-0.432673 -0.302216 0 -0.371926 -0.305459 0 -0.350656 -0.31957 0 
-0.36867 -0.336257 0 -0.390003 -0.323473 0 -0.322256 -0.308072 0 
-0.331954 -0.333787 0 -0.308884 -0.333417 0 -0.300344 -0.30515 0 
-0.285884 -0.330761 0 -0.275655 -0.307102 0 -0.261951 -0.332837 0 
-0.252981 -0.302945 0 -0.218348 -0.321711 0 -0.239612 -0.324638 0 
-0.174731 -0.332462 0 -0.197736 -0.332409 0 -0.150937 -0.337159 0 
-0.191626 -0.306171 0 -0.166692 -0.308302 0 -0.124821 -0.323521 0 
-0.110029 -0.302037 0 -0.129909 -0.349288 0 -0.102452 -0.330011 0 
-0.144355 -0.310445 0 -0.064559 -0.349322 0 -0.0596739 -0.322107 0 
-0.0817452 -0.322844 0 -0.0183036 -0.300575 0 -0.015755 -0.326739 0 
-0.0380364 -0.325204 0 0.0297893 -0.326867 0 0.0304679 -0.300598 0 