# vtk DataFile Version 4.0
vtk output
ASCII
DATASET POLYDATA
FIELD FieldData 4
domain 1 3 string
domain_min:-20|-15
domain_max:20|15
cell_size:0.05

variables 1 2 string
dt:0.000372678
T:1.25774

constants 1 10 string
xsize:2
ysize:1
csize:0.05
dx:0.0238095
h:0.025
rho0:1000
mass:0.566894
g:1|0
c:13.4164
CFL:0.2

functions 1 8 string
time:T=(T+dt)
continuity:rho_dot=((-(rho*sph_D00(v,mass,rho,Wp52220)))+(((0.1*c)*h)*sph_L00(rho,mass,rho,Wp52220)))
irho:rho=(rho+int1((rho_dot,dt))
EOS:p=(((c^2)*(rho-rho0))+10000)
euler:a=if((gid,(0*v),(((-((1/rho)*sph_G11(p,mass,rho,Wp52220)))+(0.01*sph_L00(v,mass,rho,Wp52220)))+g))
vel:v=(v+int1((a,dt))
pos:r=(r+int1((v,dt))
new_dt:dt=(CFL*min((sqrt(((h/fmax(magnitude((a)))),(h/c)))

POINTS 2798 float
-0.5375 -0.4625 0 -0.5375 -0.4875 0 -0.5125 -0.4625 0 
-0.5125 -0.4875 0 -0.487805 -0.4875 0 -0.463415 -0.4625 0 
-0.487805 -0.4625 0 -0.463415 -0.4875 0 -0.439024 -0.4625 0 
-0.414634 -0.4625 0 -0.414634 -0.4875 0 -0.439024 -0.4875 0 
-0.390244 -0.4875 0 -0.365854 -0.4625 0 -0.365854 -0.4875 0 
-0.390244 -0.4625 0 -0.317073 -0.4875 0 -0.341463 -0.4625 0 
-0.317073 -0.4625 0 -0.341463 -0.4875 0 -0.268293 -0.4625 0 
-0.292683 -0.4875 0 -0.292683 -0.4625 0 -0.268293 -0.4875 0 
-0.219512 -0.4625 0 -0.243902 -0.4625 0 -0.219512 -0.4875 0 
-0.243902 -0.4875 0 -0.195122 -0.4875 0 -0.170732 -0.4625 0 
-0.195122 -0.4625 0 -0.170732 -0.4875 0 -0.121951 -0.4875 0 
-0.146341 -0.4625 0 -0.146341 -0.4875 0 -0.121951 -0.4625 0 
-0.0731707 -0.4875 0 -0.097561 -0.4625 0 -0.0731707 -0.4625 0 
-0.097561 -0.4875 0 -0.0243903 -0.4625 0 -0.0487805 -0.4625 0 
-1.86265e-08 -0.4875 0 -0.0243903 -0.4875 0 -0.0487805 -0.4875 0 
-1.86265e-08 -0.4625 0 0.0487805 -0.4875 0 0.0487805 -0.4625 0 
0.0243902 -0.4875 0 0.0243902 -0.4625 0 0.0731707 -0.4875 0 
0.097561 -0.4875 0 0.097561 -0.4625 0 0.0731707 -0.4625 0 
0.121951 -0.4625 0 0.146341 -0.4625 0 0.146341 -0.4875 0 
0.121951 -0.4875 0 0.195122 -0.4875 0 0.170732 -0.4875 0 
0.170732 -0.4625 0 0.195122 -0.4625 0 0.243902 -0.4875 0 
0.219512 -0.4625 0 0.243902 -0.4625 0 0.219512 -0.4875 0 
0.268293 -0.4625 0 0.292683 -0.4625 0 0.268293 -0.4875 0 
0.292683 -0.4875 0 0.317073 -0.4875 0 0.341463 -0.4875 0 
0.317073 -0.4625 0 0.341463 -0.4625 0 0.365854 -0.4625 0 
0.365854 -0.4875 0 0.390244 -0.4875 0 0.390244 -0.4625 0 
0.414634 -0.4625 0 0.439024 -0.4875 0 0.414634 -0.4875 0 
0.439024 -0.4625 0 0.463415 -0.4625 0 0.487805 -0.4875 0 
0.487805 -0.4625 0 0.463415 -0.4875 0 0.5125 -0.4875 0 
0.5125 -0.4625 0 0.5375 -0.4625 0 0.5375 -0.4875 0 
-0.5375 -0.4125 0 -0.5125 -0.4125 0 -0.5125 -0.4375 0 
-0.5375 -0.4375 0 -0.489111 -0.409395 0 -0.48904 -0.436204 0 
-0.467722 -0.43431 0 -0.45955 -0.410347 0 -0.445086 -0.437559 0 
-0.423139 -0.435367 0 -0.437167 -0.408883 0 -0.412799 -0.411642 0 
-0.400005 -0.438184 0 -0.36909 -0.405214 0 -0.380554 -0.430419 0 
-0.360585 -0.437553 0 -0.391933 -0.404095 0 -0.315595 -0.433708 0 
-0.337241 -0.437176 0 -0.301664 -0.406866 0 -0.347482 -0.411726 0 
-0.324897 -0.407939 0 -0.280428 -0.413895 0 -0.270034 -0.436902 0 
-0.29459 -0.437806 0 -0.243906 -0.410179 0 -0.24908 -0.433837 0 
-0.226337 -0.4384 0 -0.220345 -0.411205 0 -0.203888 -0.43454 0 
-0.197223 -0.406769 0 -0.159882 -0.436949 0 -0.174813 -0.410427 0 
-0.182658 -0.436312 0 -0.150913 -0.410878 0 -0.137084 -0.43627 0 
-0.113111 -0.439141 0 -0.126024 -0.412296 0 -0.0671486 -0.413686 0 
-0.0980252 -0.423264 0 -0.0869506 -0.401628 0 -0.0809314 -0.43933 0 
-0.0562738 -0.436196 0 -0.00267896 -0.411509 0 -0.0110236 -0.437431 0 
-0.0267753 -0.411535 0 -0.034578 -0.435852 0 -0.0474307 -0.403701 0 
0.0367932 -0.43818 0 0.0207046 -0.411921 0 0.0452066 -0.415168 0 
0.0125115 -0.437124 0 0.0698833 -0.41322 0 0.0890193 -0.404162 0 
0.0628889 -0.438729 0 0.0866745 -0.435505 0 0.133288 -0.437989 0 
0.138694 -0.415431 0 0.110997 -0.413385 0 0.108687 -0.437159 0 
0.159854 -0.439055 0 0.187547 -0.439163 0 0.192293 -0.416939 0 
0.165693 -0.417015 0 0.241986 -0.439874 0 0.214143 -0.438373 0 
0.241395 -0.404098 0 0.223428 -0.418111 0 0.292242 -0.423274 0 
0.276776 -0.440695 0 0.257725 -0.42492 0 0.272491 -0.405954 0 
0.344763 -0.40838 0 0.30977 -0.440896 0 0.310668 -0.408185 0 
0.328502 -0.427889 0 0.347849 -0.440658 0 0.365126 -0.422233 0 
0.379583 -0.439601 0 0.387239 -0.411809 0 0.410367 -0.418599 0 
0.436707 -0.41704 0 0.406565 -0.439671 0 0.435646 -0.439313 0 
0.462722 -0.415244 0 0.462327 -0.438468 0 0.488083 -0.413975 0 
0.48784 -0.438264 0 0.5125 -0.4125 0 0.5375 -0.4125 0 
0.5125 -0.4375 0 0.5375 -0.4375 0 -0.5125 -0.3625 0 
-0.5375 -0.3625 0 -0.5375 -0.3875 0 -0.5125 -0.3875 0 
-0.486861 -0.350363 0 -0.464887 -0.363051 0 -0.490358 -0.376478 0 
-0.473176 -0.391003 0 -0.400832 -0.381109 0 -0.448647 -0.381028 0 
-0.425071 -0.386101 0 -0.443427 -0.35038 0 -0.423245 -0.362275 0 
-0.371264 -0.379483 0 -0.38741 -0.361689 0 -0.354229 -0.357535 0 
-0.324403 -0.381817 0 -0.306566 -0.356579 0 -0.330611 -0.356736 0 
-0.347497 -0.383959 0 -0.264736 -0.399057 0 -0.256523 -0.36587 0 
-0.283243 -0.352342 0 -0.277779 -0.378382 0 -0.299842 -0.382184 0 
-0.242107 -0.383516 0 -0.218661 -0.385151 0 -0.221864 -0.361277 0 
-0.194963 -0.380621 0 -0.162323 -0.36381 0 -0.170768 -0.385256 0 
-0.190948 -0.358216 0 -0.141714 -0.352255 0 -0.111818 -0.396253 0 
-0.144835 -0.387857 0 -0.105243 -0.370641 0 -0.128391 -0.373893 0 
-0.0819152 -0.378869 0 -0.0592278 -0.381203 0 -0.0718494 -0.354694 0 
-0.0181691 -0.386816 0 -0.0375474 -0.375434 0 -0.027489 -0.351233 0 
-0.00601685 -0.362118 0 0.0204523 -0.362593 0 0.0307645 -0.388758 0 
0.0454127 -0.36616 0 0.00617959 -0.385442 0 0.0964418 -0.381173 0 
0.0729735 -0.376644 0 0.0558617 -0.390692 0 0.0747827 -0.352562 0 
0.0995775 -0.355472 0 0.146773 -0.392048 0 0.121736 -0.369211 0 
0.121362 -0.392407 0 0.171666 -0.394352 0 0.186829 -0.378536 0 
0.150699 -0.369556 0 0.17071 -0.359239 0 0.20392 -0.398757 0 
0.205312 -0.364287 0 0.236102 -0.368051 0 0.222184 -0.385576 0 
0.256012 -0.385773 0 0.251301 -0.352371 0 0.290091 -0.356612 0 
0.272805 -0.370617 0 0.290253 -0.391324 0 0.349043 -0.376067 0 
0.328381 -0.391666 0 0.32738 -0.36256 0 0.30773 -0.376279 0 
0.387001 -0.384536 0 0.390722 -0.358686 0 0.367364 -0.361791 0 
0.366031 -0.393515 0 0.411888 -0.368013 0 0.437204 -0.370925 0 
0.410175 -0.393471 0 0.434742 -0.394038 0 0.461203 -0.39222 0 
0.487291 -0.390372 0 0.46296 -0.369109 0 0.488578 -0.366644 0 
0.5375 -0.3875 0 0.5125 -0.3625 0 0.5125 -0.3875 0 
0.5375 -0.3625 0 -0.5125 -0.3375 0 -0.5375 -0.3125 0 
-0.5125 -0.3125 0 -0.5375 -0.3375 0 -0.464024 -0.335065 0 
-0.490161 -0.324813 0 -0.47369 -0.308863 0 -0.446573 -0.317419 0 
-0.4061 -0.346009 0 -0.426661 -0.330716 0 -0.410043 -0.311879 0 
-0.390736 -0.327029 0 -0.378421 -0.305329 0 -0.358892 -0.320425 0 
-0.371248 -0.342324 0 -0.316129 -0.330709 0 -0.339364 -0.331837 0 
-0.320204 -0.305517 0 -0.342348 -0.300937 0 -0.297862 -0.300144 0 
-0.263204 -0.338955 0 -0.293545 -0.327926 0 -0.250262 -0.312209 0 
-0.273186 -0.315756 0 -0.240123 -0.346448 0 -0.207087 -0.317548 0 
-0.207467 -0.341696 0 -0.230461 -0.324636 0 -0.152843 -0.330565 0 
-0.183669 -0.318826 0 -0.162982 -0.305629 0 -0.175231 -0.340676 0 
-0.112765 -0.321715 0 -0.120384 -0.344158 0 -0.136278 -0.315622 0 
-0.0801918 -0.301211 0 -0.0952087 -0.348526 0 -0.0501831 -0.349455 0 
-0.0645712 -0.326814 0 -0.0877139 -0.325324 0 -0.0425582 -0.320009 0 
-0.0121767 -0.300878 0 -0.0215777 -0.326663 0 0.00129525 -0.338924 0 
0.0298574 -0.312466 0 0.0264859 -0.338493 0 0.00603744 -0.314972 0 
0.0803071 -0.32921 0 0.0781102 -0.306832 0 0.0535297 -0.32086 0 
0.0515287 -0.343934 0 0.132603 -0.349642 0 0.133194 -0.324894 0 
0.10793 -0.33452 0 0.130966 -0.300831 0 0.105707 -0.311881 0 
0.155291 -0.33808 0 0.188504 -0.343432 0 0.153755 -0.305134 0 
0.186424 -0.30355 0 0.171809 -0.322657 0 0.234821 -0.330034 0 
0.21893 -0.308174 0 0.202609 -0.324621 0 0.219257 -0.346005 0 
0.267835 -0.338843 0 0.286929 -0.327061 0 0.252717 -0.315993 0 
0.272448 -0.305118 0 0.303367 -0.312357 0 0.344277 -0.345836 0 
0.329522 -0.304752 0 0.326446 -0.328408 0 0.309032 -0.343713 0 
0.391809 -0.332568 0 0.380912 -0.309604 0 0.367856 -0.33617 0 
0.352701 -0.317991 0 0.413582 -0.339407 0 0.42947 -0.318852 0 
0.434665 -0.34835 0 0.406596 -0.309228 0 0.488061 -0.342202 0 
0.46294 -0.346499 0 0.452328 -0.326983 0 0.461637 -0.30675 0 
0.484372 -0.32119 0 0.5125 -0.3375 0 0.5375 -0.3375 0 
0.5375 -0.3125 0 0.5125 -0.3125 0 -0.5375 -0.2625 0 
-0.5125 -0.2625 0 -0.5375 -0.2875 0 -0.5125 -0.2875 0 
-0.455042 -0.292335 0 -0.472606 -0.274515 0 -0.490492 -0.258612 0 
-0.454259 -0.25648 0 -0.4905 -0.291263 0 -0.437893 -0.273238 0 
-0.4138 -0.272557 0 -0.428486 -0.297628 0 -0.397556 -0.289835 0 
-0.362397 -0.286918 0 -0.366482 -0.250802 0 -0.381236 -0.270565 0 
-0.398679 -0.252687 0 -0.305016 -0.275097 0 -0.347771 -0.267212 0 
-0.327082 -0.278066 0 -0.282608 -0.2661 0 -0.253328 -0.283968 0 
-0.275376 -0.290148 0 -0.262101 -0.256244 0 -0.214665 -0.269938 0 
-0.237879 -0.265671 0 -0.23091 -0.295643 0 -0.20701 -0.292644 0 
-0.174668 -0.268969 0 -0.194642 -0.258077 0 -0.153517 -0.284419 0 
-0.18456 -0.290406 0 -0.150302 -0.258136 0 -0.104941 -0.298439 0 
-0.103131 -0.274383 0 -0.130022 -0.292679 0 -0.127846 -0.26839 0 
-0.0551856 -0.27048 0 -0.0976585 -0.250214 0 -0.0787484 -0.27596 0 
-0.0568039 -0.297682 0 -0.0321313 -0.26949 0 -0.00912208 -0.259144 0 
-0.0326393 -0.293227 0 -0.000530805 -0.279389 0 0.0201528 -0.289359 0 
0.0414045 -0.276656 0 0.0224074 -0.260226 0 0.0766649 -0.282657 0 
0.0657411 -0.263976 0 0.0526055 -0.296223 0 0.128093 -0.278352 0 
0.101901 -0.266208 0 0.125242 -0.25349 0 0.102325 -0.289413 0 
0.169131 -0.253254 0 0.150093 -0.271268 0 0.186408 -0.268314 0 
0.167886 -0.286171 0 0.222925 -0.274039 0 0.237898 -0.255422 0 
0.206521 -0.254911 0 0.203003 -0.287301 0 0.238321 -0.294882 0 
0.286027 -0.26034 0 0.254048 -0.279572 0 0.261414 -0.254972 0 
0.278275 -0.283092 0 0.33336 -0.283145 0 0.30226 -0.290379 0 
0.327739 -0.251185 0 0.311743 -0.269566 0 0.396957 -0.287341 0 
[...]
POINT_DATA 2798
SCALARS id float
LOOKUP_TABLE default
2601 2600 2621 2620 2640 2643 2641 2642 2645 
2647 2646 2644 2648 2651 2650 2649 2654 2653 
2655 2652 2659 2656 2657 2658 2663 2661 2662 
2660 2664 2667 2665 2666 2670 2669 2668 2671 
2674 2673 2675 2672 2679 2677 2680 2678 2676 
2681 2684 2685 2682 2683 2686 2688 2689 2687 
2691 2693 2692 2690 2696 2694 2695 2697 2700 
2699 2701 2698 2703 2705 2702 2704 2706 2708 
2707 2709 2711 2710 2712 2713 2715 2716 2714 
2717 2719 2720 2721 2718 2722 2723 2743 2742 
2603 2623 2622 2602 1661 1660 1678 1697 1696 
1714 1715 1750 1732 1805 1768 1786 1787 1822 
1804 1859 1823 1841 1877 1858 1840 1913 1876 
1894 1931 1912 1949 1948 1967 1930 1985 1966 
1984 2003 2057 2002 2039 2020 2038 2111 2074 
2093 2056 2075 2110 2129 2147 2092 2165 2184 
2128 2146 2182 2201 2183 2164 2200 2218 2237 
2219 2254 2236 2274 2255 2291 2272 2273 2292 
2328 2290 2310 2309 2308 2327 2326 2346 2365 
2364 2345 2344 2363 2362 2381 2380 2725 2745 
2724 2744 2625 2605 2604 2624 1680 1698 1662 
1679 1769 1716 1733 1734 1751 1806 1788 1825 
1842 1861 1843 1824 1895 1896 1879 1878 1860 
1914 1932 1933 1950 2005 1986 1968 2023 2021 
2004 2040 2022 2058 2076 2077 2112 2094 2113 
2131 2149 2148 2167 2130 2203 2185 2166 2204 
2222 2220 2221 2202 2238 2257 2239 2258 2256 
2276 2294 2275 2293 2278 2296 2295 2311 2330 
2329 2313 2312 2348 2350 2331 2347 2351 2368 
2349 2366 2383 2382 2367 2384 2746 2727 2726 
2747 2626 2607 2627 2606 1717 1663 1699 1735 
1770 1752 1771 1789 1808 1826 1807 1862 1844 
1881 1863 1899 1897 1880 1916 1898 1915 1952 
1951 1934 2024 1969 2006 1987 2060 2041 2042 
2079 2059 2095 2096 2078 2114 2133 2132 2150 
2187 2168 2169 2206 2190 2205 2186 2240 2224 
2223 2208 2207 2241 2259 2225 2243 2242 2279 
2261 2260 2277 2297 2298 2280 2281 2299 2332 
2282 2315 2314 2334 2317 2333 2316 2352 2353 
2369 2335 2385 2386 2370 2389 2387 2728 2748 
2749 2729 2609 2629 2608 2628 1718 1700 1664 
1719 1681 1736 1772 1753 1790 1845 1846 1827 
1809 1900 1864 1882 1918 1935 1917 1936 1971 
1954 1953 1970 2007 1989 2025 1988 2026 2061 
2062 2043 2044 2098 2063 2080 2097 2116 2134 
2115 2151 2188 2172 2170 2173 2155 2189 2174 
2156 2140 2191 2192 2209 2227 2226 2245 2228 
2210 2244 2262 2194 2263 2211 2246 2265 2264 
2212 2229 2336 2300 2283 2247 2230 2354 2318 
2266 2284 2371 2372 2390 2388 2337 2751 2730 
2750 2731 2630 2611 2631 2610 1665 1701 1683 
1682 1773 1754 1737 1791 1810 1847 1828 1865 
1884 1883 1901 1866 1938 1937 1902 1919 1920 
1955 1973 1972 1956 1990 2008 2009 1991 2027 
2028 2010 2045 2029 2081 2064 2046 2099 2082 
2135 2100 2117 2120 2171 2153 2152 2136 2138 
2137 2154 2139 2157 2122 2123 2089 2053 2175 
2141 2158 2193 2159 2036 2124 2177 2054 2072 
1911 1929 1893 1581 2018 2142 2125 21 1875 
2195 340 2248 2231 2391 2355 2267 2752 2733 
2732 2753 2632 2612 2633 2613 1702 1684 1666 
1738 1774 1792 1720 1755 1829 1811 1848 1831 
1830 1885 1849 1867 1868 1903 1939 1904 1921 
1957 1976 1974 1924 1940 1958 1975 1992 1977 
2011 1993 1994 2030 2012 2048 2047 2084 2101 
2065 2083 2119 2102 2103 2118 2104 2121 2068 
2086 2087 2033 2071 2105 2069 2070 2106 2088 
2052 1857 2051 2000 1839 2107 2176 1821 2035 
1 1838 180 1361 1946 140 1441 1522 120 
1481 1620 1362 1461 1521 280 2373 2301 2090 
2754 2735 2755 2734 2614 2634 2635 2615 1703 
1667 1685 1668 1756 1739 1757 1721 1793 1794 
1775 1812 1832 1869 1850 1813 1851 1922 1870 
1886 1887 1781 1852 1923 1905 1817 1871 1835 
1906 1959 1941 1960 1925 1944 1978 1995 2013 
2014 2031 2066 1996 2049 1962 1997 2067 80 
2085 1945 2015 2050 2032 1999 1980 2016 1998 
1892 2017 1963 1964 1910 1981 2034 1982 1600 
1820 1803 40 1181 1928 1301 1541 1201 1281 
1561 100 1161 60 20 1341 2213 0 320 
2736 2737 2757 2756 2637 2617 2616 2636 1740 
1669 1704 1722 1776 1758 1759 1777 1814 1795 
1815 1779 1833 1796 1780 1816 1726 1727 1797 
1689 1674 1834 1673 1711 1798 1745 1100 1763 
1799 1709 1746 1728 1888 1180 1943 1695 1961 
1927 1889 1909 1979 1942 1874 1783 1890 1693 
1856 1926 1785 1801 1908 1837 1891 1819 1818 
1560 1731 1873 1749 160 1500 1712 1713 1784 
1580 1802 1261 1241 1040 1520 1141 1420 1540 
1101 1081 1122 1440 1460 1183 1321 1400 1221 
2758 2759 2738 2739 2564 2566 2567 2565 2571 
2568 2570 2569 2573 2574 2575 2572 2579 2577 
2576 2578 2581 2580 2582 2583 2584 2585 2586 
2587 2590 2589 2588 2591 2592 2594 2595 2593 
2597 2599 2598 2596 2639 2619 2638 2618 1723 
1686 1687 1670 1671 1742 1760 1741 1705 1724 
1743 1778 1688 640 1762 1725 1761 2396 1708 
1691 1744 1672 2361 1707 800 1140 2343 461 
2145 1080 2199 1020 1710 1120 2288 1676 762 
820 2378 462 1060 542 900 761 2397 1853 
1220 482 601 780 1907 1872 1855 1160 1765 
1854 1748 1836 1380 1800 1300 1280 1729 1782 
1730 881 1767 1001 1747 802 1340 701 1360 
1766 1480 1041 1260 1320 1121 1242 862 822 
2761 2741 2760 2740 2763 2764 2762 2765 2769 
2768 2766 2767 2770 2773 2772 2771 2777 2776 
2774 2775 2779 2780 2778 2781 2782 2783 2784 
2785 2788 2786 2787 2789 2791 2790 2792 2793 
2797 2796 2794 2795 1402 240 2320 1947 1502 
1342 2143 2232 1204 2214 2356 1382 2250 2215 
1523 2303 1303 1283 2126 1582 2251 2374 300 
201 2357 2234 2161 2252 2305 2179 161 41 
2198 2375 2216 2339 2233 2358 2323 2359 2376 
2393 2180 2321 2395 2055 2163 1983 2360 2304 
2235 2287 2394 2109 2377 2270 1706 2253 2306 
341 840 163 2341 2307 2271 2342 2325 2324 
2217 480 660 460 520 680 421 2127 420 
1690 261 223 1675 700 860 2289 2379 561 
620 560 540 720 481 1764 263 422 521 
442 1692 541 501 401 721 1200 363 920 
402 1677 880 1694 661 463 621 722 423 
682 861 1240 641 921 980 703 1102 901 
801 941 742 1000 1062 981 2285 1202 783 
1061 782 1082 1401 1021 843 1142 2319 1282 
2178 1601 962 1262 883 2160 1222 1182 903 
1381 1243 220 2249 1203 2302 1184 2338 2392 
1322 260 1421 1042 1044 1103 864 963 983 
1123 1223 181 1621 1003 1024 1064 1144 1143 
1045 1124 1004 1542 1185 1263 1302 1105 1145 
1106 1483 2196 1501 1224 2108 1422 1562 1544 
1264 1482 1641 1344 1383 200 1602 1564 1463 
1563 1503 1443 162 141 2197 143 2162 61 
81 42 182 2037 360 83 2019 1622 2268 
2269 500 23 2073 2286 2340 1644 22 2001 
3 440 1643 1623 2091 2322 63 400 380 
4 104 43 281 441 362 241 221 44 
2181 144 321 124 105 580 302 600 262 
282 740 301 184 224 381 361 323 264 
244 283 382 383 303 342 443 322 324 
343 760 344 403 404 582 522 940 364 
681 581 602 483 960 583 781 702 662 
841 683 622 741 821 643 723 961 803 
664 942 1002 763 823 804 743 922 744 
824 1043 982 1063 1640 1022 1543 863 923 
1083 1162 943 1163 1023 806 825 786 805 
766 787 845 904 884 826 846 865 885 
924 866 944 905 886 1025 984 925 964 
1104 1084 985 945 1065 1085 1164 1046 1086 
1066 1125 1026 1442 1087 1205 1244 1363 1126 
1343 1165 1225 1186 1323 1462 1423 1364 1265 
1403 1304 1404 1207 1385 1365 1384 1366 1345 
1524 1424 1325 1346 1642 2144 121 1405 1583 
1965 1464 1545 103 84 142 82 102 1603 
122 2 1605 101 1485 1604 1565 1505 1585 
123 1624 1586 1625 62 64 5 25 26 
27 85 45 6 46 65 222 242 183 
66 203 86 165 202 166 204 243 164 
146 147 205 185 225 245 206 186 284 
304 305 285 266 345 365 325 286 384 
385 424 346 502 405 562 444 563 543 
464 503 523 484 544 642 504 663 603 
623 564 524 644 684 624 604 625 565 
585 645 704 665 842 605 882 724 764 
705 784 785 902 844 687 765 706 707 
745 727 746 747 726 768 767 788 807 
827 867 808 848 847 887 868 906 965 
888 907 926 946 966 986 947 987 1047 
1005 1006 967 1067 1088 1068 1027 1007 1107 
1108 1146 1089 1245 1284 1166 1206 1147 1226 
1187 1285 1246 1208 1167 1227 1267 1266 1228 
1305 1324 1444 1306 1286 1287 1367 1386 1406 
1326 1347 1425 1426 1387 1484 1504 1445 1584 
1525 1467 1466 1465 1446 1506 1487 1486 1546 
1547 1526 1566 1527 1645 24 1548 1567 1626 
1646 1647 1606 1627 1648 7 47 8 67 
28 87 145 88 106 125 107 127 108 
126 167 148 187 189 188 265 226 207 
227 208 246 306 247 326 267 287 366 
327 307 386 425 347 367 406 387 465 
426 407 445 446 485 466 505 486 584 
506 525 545 546 526 547 567 566 626 
586 685 646 606 587 607 627 725 666 
686 668 648 649 669 667 708 688 689 
709 749 769 729 728 748 828 789 809 
849 829 850 869 889 890 908 870 910 
909 929 927 928 948 968 969 988 949 
1028 989 1008 1009 1029 1049 1048 1069 1110 
1128 1090 1127 1109 1130 1129 1149 1148 1168 
1188 1189 1209 1247 1229 1248 1288 1268 1249 
1307 1327 1289 1309 1308 1328 1368 1329 1348 
1388 1407 1408 1427 1428 1409 1429 1447 1448 
1449 1468 1469 1509 1507 1488 1489 1508 1549 
1568 1528 1529 1608 1589 1607 1587 1588 1629 
1609 1630 1628 29 9 1650 1649 68 49 
48 70 89 69 109 168 129 128 169 
149 190 228 209 248 249 210 229 268 
269 288 289 309 308 328 329 349 348 
369 408 368 388 429 428 447 427 409 
467 448 468 487 507 488 508 549 528 
548 527 568 588 569 608 589 629 628 
609 647 650 671 670 651 711 710 690 
691 730 751 731 750 770 771 790 791 
811 831 852 830 810 851 872 891 892 
871 930 911 931 912 950 951 971 970 
1010 991 1011 990 1050 1051 1031 1030 1071 
1091 1070 1092 1111 1112 1132 1131 1170 1169 
1190 1151 1150 1191 1231 1230 1211 1210 1269 
1251 1250 1270 1271 1290 1291 1310 1350 1349 
1330 1331 1311 1369 1351 1389 1370 1411 1390 
1410 1450 1430 1470 1431 1451 1510 1471 1491 
1490 1511 1550 1530 1531 1551 1569 1571 1570 
1591 1610 1611 1590 1631 1652 10 1651 11 
51 30 50 31 71 90 91 131 110 
111 130 150 172 151 171 170 231 211 
192 230 191 251 250 271 270 290 311 
310 291 331 351 350 330 389 390 370 
371 391 430 431 411 410 469 470 450 
449 490 510 509 489 550 551 529 530 
590 570 571 591 610 630 631 611 673 
672 652 653 693 713 692 712 733 753 
752 732 792 773 793 772 833 813 812 
832 894 874 893 853 873 914 933 913 
932 973 952 972 953 992 993 1012 1013 
1053 1052 1033 1032 1094 1073 1093 1072 1113 
1133 1134 1114 1153 1152 1171 1172 1212 1192 
1233 1213 1232 1253 1252 1273 1272 1293 1292 
1353 1312 1333 1313 1332 1352 1372 1373 1371 
1413 1412 1391 1392 1433 1432 1453 1452 1472 
1492 1493 1473 1533 1532 1512 1513 1553 1552 
1573 1572 1612 1592 1613 1632 1633 1593 13 
12 1653 32 33 52 53 92 93 73 
72 112 133 132 113 173 174 153 152 
212 193 213 232 233 252 273 272 274 
253 293 313 294 312 292 332 333 352 
372 393 373 392 412 432 413 433 452 
471 473 472 453 451 511 512 491 492 
532 552 553 531 593 592 573 572 633 
613 632 612 674 654 655 675 714 715 
695 694 755 754 734 735 794 774 795 
775 834 814 854 835 815 855 895 875 
916 915 934 935 955 995 975 954 974 
1014 1035 994 1015 1055 1054 1034 1075 1095 
1136 1115 1074 1155 1154 1175 1135 1173 1194 
1174 1193 1214 1215 1235 1234 1255 1275 1274 
1254 1314 1315 1294 1295 1334 1335 1354 1355 
1395 1394 1374 1375 1393 1415 1434 1414 1435 
1455 1454 1475 1494 1495 1515 1474 1555 1535 
1534 1514 1554 1575 1595 1594 1574 1635 1634 
1615 1614 1654 1655 15 14 34 55 54 
35 94 75 95 74 115 135 134 114 
175 155 195 154 215 234 235 194 214 
275 255 254 314 335 295 315 334 353 
354 375 394 395 374 434 415 435 414 
454 475 474 455 495 493 494 513 514 
534 555 533 554 595 575 594 574 635 
614 615 634 757 777 676 696 817 736 
797 716 857 776 756 837 796 897 816 
877 836 917 856 876 937 936 957 977 
896 956 1017 976 997 1016 1037 1057 996 
1036 1097 1077 1056 1117 1096 1076 1137 1177 
1197 1157 1116 1156 1217 1176 1237 1257 1216 
1195 1196 1236 1297 1277 1256 1276 1337 1317 
1296 1316 1357 1377 1417 1356 1397 1336 1396 
1437 1376 1457 1416 1436 1477 1497 1517 1476 
1537 1456 1516 1577 1597 1496 1557 1637 1536 
1556 1617 1657 1576 1596 17 57 37 1636 
1616 77 1656 36 16 97 117 76 56 
137 96 177 116 197 157 156 237 217 
136 176 257 196 277 216 297 236 256 
317 337 296 357 276 417 356 336 316 
377 397 437 355 396 376 457 497 477 
436 416 517 537 476 456 577 496 516 
557 617 597 536 515 535 576 657 637 
556 677 596 697 616 737 636 717 656 
179 1078 1058 159 1098 199 219 1118 1138 
239 259 1158 279 299 1198 1178 319 1238 
339 1218 379 1278 359 1258 399 1318 1298 
419 459 1358 1338 439 1378 479 519 1398 
499 539 559 1438 1418 579 599 1458 1478 
1498 619 1518 639 659 1538 1558 679 1598 
1578 739 719 699 1638 759 1618 779 1658 
799 819 18 839 859 58 38 98 118 
879 899 78 959 919 158 138 939 979 
999 198 178 218 238 1019 1039 278 258 
298 1079 1059 1119 1099 318 338 378 358 
1139 1159 1199 418 398 1179 1239 1219 438 
458 478 498 1259 1279 1299 518 1319 538 
578 598 1359 558 1339 1379 618 1399 638 
658 1419 678 1439 718 1479 1459 698 758 
738 1519 1499 1539 778 1559 798 1579 1599 
818 838 858 878 1639 1619 1659 898 19 
918 938 958 39 59 79 978 998 99 
119 1018 1038 139 2401 2399 2400 2398 2404 
2402 2405 2403 2407 2409 2408 2406 2410 2412 
2413 2411 2417 2416 2414 2415 2420 2419 2421 
2418 2424 2427 2423 2426 2425 2422 2428 2429 
2430 2431 2432 2435 2434 2433 2437 2439 2438 
2436 2440 2441 2442 2443 2444 2447 2446 2445 
2448 2451 2450 2449 2455 2453 2454 2452 2457 
2458 2459 2456 2463 2461 2460 2462 2466 2464 
2465 2467 2469 2471 2470 2468 2473 2472 2474 
2475 2476 2478 2481 2477 2479 2480 2485 2484 
2483 2482 2488 2487 2489 2486 2493 2492 2490 
2491 2497 2496 2495 2494 2501 2500 2499 2498 
2503 2504 2502 2505 2509 2508 2507 2506 2511 
2510 2513 2512 2516 2514 2515 2517 2518 2520 
2519 2521 2523 2524 2525 2522 2527 2528 2529 
2526 2533 2532 2530 2531 2534 2535 2536 2537 
2538 2539 2543 2542 2541 2540 2544 2545 2546 
2547 2548 2551 2550 2549 2554 2555 2553 2552 
2558 2556 2557 2559 2560 2561 2562 2563 
FIELD FieldData 7
r 3 2798 float
-0.5375 -0.4625 0 -0.5375 -0.4875 0 -0.5125 -0.4625 0 
-0.5125 -0.4875 0 -0.487805 -0.4875 0 -0.463415 -0.4625 0 
-0.487805 -0.4625 0 -0.463415 -0.4875 0 -0.439024 -0.4625 0 
-0.414634 -0.4625 0 -0.414634 -0.4875 0 -0.439024 -0.4875 0 
-0.390244 -0.4875 0 -0.365854 -0.4625 0 -0.365854 -0.4875 0 
-0.390244 -0.4625 0 -0.317073 -0.4875 0 -0.341463 -0.4625 0 
-0.317073 -0.4625 0 -0.341463 -0.4875 0 -0.268293 -0.4625 0 
-0.292683 -0.4875 0 -0.292683 -0.4625 0 -0.268293 -0.4875 0 
-0.219512 -0.4625 0 -0.243902 -0.4625 0 -0.219512 -0.4875 0 
-0.243902 -0.4875 0 -0.195122 -0.4875 0 -0.170732 -0.4625 0 
-0.195122 -0.4625 0 -0.170732 -0.4875 0 -0.121951 -0.4875 0 
-0.146341 -0.4625 0 -0.146341 -0.4875 0 -0.121951 -0.4625 0 
-0.0731707 -0.4875 0 -0.097561 -0.4625 0 -0.0731707 -0.4625 0 
-0.097561 -0.4875 0 -0.0243903 -0.4625 0 -0.0487805 -0.4625 0 
-1.86265e-08 -0.4875 0 -0.0243903 -0.4875 0 -0.0487805 -0.4875 0 
-1.86265e-08 -0.4625 0 0.0487805 -0.4875 0 0.0487805 -0.4625 0 
0.0243902 -0.4875 0 0.0243902 -0.4625 0 0.0731707 -0.4875 0 
0.097561 -0.4875 0 0.097561 -0.4625 0 0.0731707 -0.4625 0 
0.121951 -0.4625 0 0.146341 -0.4625 0 0.146341 -0.4875 0 
0.121951 -0.4875 0 0.195122 -0.4875 0 0.170732 -0.4875 0 
0.170732 -0.4625 0 0.195122 -0.4625 0 0.243902 -0.4875 0 
0.219512 -0.4625 0 0.243902 -0.4625 0 0.219512 -0.4875 0 
0.268293 -0.4625 0 0.292683 -0.4625 0 0.268293 -0.4875 0 
0.292683 -0.4875 0 0.317073 -0.4875 0 0.341463 -0.4875 0 
0.317073 -0.4625 0 0.341463 -0.4625 0 0.365854 -0.4625 0 
0.365854 -0.4875 0 0.390244 -0.4875 0 0.390244 -0.4625 0 
0.414634 -0.4625 0 0.439024 -0.4875 0 0.414634 -0.4875 0 
0.439024 -0.4625 0 0.463415 -0.4625 0 0.487805 -0.4875 0 
0.487805 -0.4625 0 0.463415 -0.4875 0 0.5125 -0.4875 0 
0.5125 -0.4625 0 0.5375 -0.4625 0 0.5375 -0.4875 0 
-0.5375 -0.4125 0 -0.5125 -0.4125 0 -0.5125 -0.4375 0 
-0.5375 -0.4375 0 -0.489111 -0.409395 0 -0.48904 -0.436204 0 
-0.467722 -0.43431 0 -0.45955 -0.410347 0 -0.445086 -0.437559 0 
-0.423139 -0.435367 0 -0.437167 -0.408883 0 -0.412799 -0.411642 0 
-0.400005 -0.438184 0 -0.36909 -0.405214 0 -0.380554 -0.430419 0 
-0.360585 -0.437553 0 -0.391933 -0.404095 0 -0.315595 -0.433708 0 
-0.337241 -0.437176 0 -0.301664 -0.406866 0 -0.347482 -0.411726 0 
-0.324897 -0.407939 0 -0.280428 -0.413895 0 -0.270034 -0.436902 0 
-0.29459 -0.437806 0 -0.243906 -0.410179 0 -0.24908 -0.433837 0 
-0.226337 -0.4384 0 -0.220345 -0.411205 0 -0.203888 -0.43454 0 
-0.197223 -0.406769 0 -0.159882 -0.436949 0 -0.174813 -0.410427 0 
-0.182658 -0.436312 0 -0.150913 -0.410878 0 -0.137084 -0.43627 0 
-0.113111 -0.439141 0 -0.126024 -0.412296 0 -0.0671486 -0.413686 0 
-0.0980252 -0.423264 0 -0.0869506 -0.401628 0 -0.0809314 -0.43933 0 
-0.0562738 -0.436196 0 -0.00267896 -0.411509 0 -0.0110236 -0.437431 0 
-0.0267753 -0.411535 0 -0.034578 -0.435852 0 -0.0474307 -0.403701 0 
0.0367932 -0.43818 0 0.0207046 -0.411921 0 0.0452066 -0.415168 0 
0.0125115 -0.437124 0 0.0698833 -0.41322 0 0.0890193 -0.404162 0 
0.0628889 -0.438729 0 0.0866745 -0.435505 0 0.133288 -0.437989 0 
0.138694 -0.415431 0 0.110997 -0.413385 0 0.108687 -0.437159 0 
0.159854 -0.439055 0 0.187547 -0.439163 0 0.192293 -0.416939 0 
0.165693 -0.417015 0 0.241986 -0.439874 0 0.214143 -0.438373 0 
0.241395 -0.404098 0 0.223428 -0.418111 0 0.292242 -0.423274 0 
0.276776 -0.440695 0 0.257725 -0.42492 0 0.272491 -0.405954 0 
0.344763 -0.40838 0 0.30977 -0.440896 0 0.310668 -0.408185 0 
0.328502 -0.427889 0 0.347849 -0.440658 0 0.365126 -0.422233 0 
0.379583 -0.439601 0 0.387239 -0.411809 0 0.410367 -0.418599 0 
0.436707 -0.41704 0 0.406565 -0.439671 0 0.435646 -0.439313 0 
0.462722 -0.415244 0 0.462327 -0.438468 0 0.488083 -0.413975 0 
0.48784 -0.438264 0 0.5125 -0.4125 0 0.5375 -0.4125 0 
0.5125 -0.4375 0 0.5375 -0.4375 0 -0.5125 -0.3625 0 
-0.5375 -0.3625 0 -0.5375 -0.3875 0 -0.5125 -0.3875 0 
-0.486861 -0.350363 0 -0.464887 -0.363051 0 -0.490358 -0.376478 0 
-0.473176 -0.391003 0 -0.400832 -0.381109 0 -0.448647 -0.381028 0 
-0.425071 -0.386101 0 -0.443427 -0.35038 0 -0.423245 -0.362275 0 
-0.371264 -0.379483 0 -0.38741 -0.361689 0 -0.354229 -0.357535 0 
-0.324403 -0.381817 0 -0.306566 -0.356579 0 -0.330611 -0.356736 0 
-0.347497 -0.383959 0 -0.264736 -0.399057 0 -0.256523 -0.36587 0 
-0.283243 -0.352342 0 -0.277779 -0.378382 0 -0.299842 -0.382184 0 
-0.242107 -0.383516 0 -0.218661 -0.385151 0 -0.221864 -0.361277 0 
-0.194963 -0.380621 0 -0.162323 -0.36381 0 -0.170768 -0.385256 0 
-0.190948 -0.358216 0 -0.141714 -0.352255 0 -0.111818 -0.396253 0 
-0.144835 -0.387857 0 -0.105243 -0.370641 0 -0.128391 -0.373893 0 
-0.0819152 -0.378869 0 -0.0592278 -0.381203 0 -0.0718494 -0.354694 0 
-0.0181691 -0.386816 0 -0.0375474 -0.375434 0 -0.027489 -0.351233 0 
-0.00601685 -0.362118 0 0.0204523 -0.362593 0 0.0307645 -0.388758 0 
0.0454127 -0.36616 0 0.00617959 -0.385442 0 0.0964418 -0.381173 0 
0.0729735 -0.376644 0 0.0558617 -0.390692 0 0.0747827 -0.352562 0 
0.0995775 -0.355472 0 0.146773 -0.392048 0 0.121736 -0.369211 0 
0.121362 -0.392407 0 0.171666 -0.394352 0 0.186829 -0.378536 0 
0.150699 -0.369556 0 0.17071 -0.359239 0 0.20392 -0.398757 0 
0.205312 -0.364287 0 0.236102 -0.368051 0 0.222184 -0.385576 0 
0.256012 -0.385773 0 0.251301 -0.352371 0 0.290091 -0.356612 0 
0.272805 -0.370617 0 0.290253 -0.391324 0 0.349043 -0.376067 0 
0.328381 -0.391666 0 0.32738 -0.36256 0 0.30773 -0.376279 0 
0.387001 -0.384536 0 0.390722 -0.358686 0 0.367364 -0.361791 0 
0.366031 -0.393515 0 0.411888 -0.368013 0 0.437204 -0.370925 0 
0.410175 -0.393471 0 0.434742 -0.394038 0 0.461203 -0.39222 0 
0.487291 -0.390372 0 0.46296 -0.369109 0 0.488578 -0.366644 0 
0.5375 -0.3875 0 0.5125 -0.3625 0 0.5125 -0.3875 0 
0.5375 -0.3625 0 -0.5125 -0.3375 0 -0.5375 -0.3125 0 
-0.5125 -0.3125 0 -0.5375 -0.3375 0 -0.464024 -0.335065 0 
-0.490161 -0.324813 0 -0.47369 -0.308863 0 -0.446573 -0.317419 0 
-0.4061 -0.346009 0 -0.426661 -0.330716 0 -0.410043 -0.311879 0 
-0.390736 -0.327029 0 -0.378421 -0.305329 0 -0.358892 -0.320425 0 
-0.371248 -0.342324 0 -0.316129 -0.330709 0 -0.339364 -0.331837 0 
-0.320204 -0.305517 0 -0.342348 -0.300937 0 -0.297862 -0.300144 0 
-0.263204 -0.338955 0 -0.293545 -0.327926 0 -0.250262 -0.312209 0 
-0.273186 -0.315756 0 -0.240123 -0.346448 0 -0.207087 -0.317548 0 
-0.207467 -0.341696 0 -0.230461 -0.324636 0 -0.152843 -0.330565 0 
-0.183669 -0.318826 0 -0.162982 -0.305629 0 -0.175231 -0.340676 0 
-0.112765 -0.321715 0 -0.120384 -0.344158 0 -0.136278 -0.315622 0 
-0.0801918 -0.301211 0 -0.0952087 -0.348526 0 -0.0501831 -0.349455 0 
-0.0645712 -0.326814 0 -0.0877139 -0.325324 0 -0.0425582 -0.320009 0 
-0.0121767 -0.300878 0 -0.0215777 -0.326663 0 0.00129525 -0.338924 0 