# vtk DataFile Version 4.0
vtk output
ASCII
DATASET POLYDATA
FIELD FieldData 4
domain 1 3 string
domain_min:-20|-15
domain_max:20|15
cell_size:0.05

variables 1 2 string
dt:0.000372678
T:2.51543

constants 1 10 string
xsize:2
ysize:1
csize:0.05
dx:0.0238095
h:0.025
rho0:1000
mass:0.566894
g:1|0
c:13.4164
CFL:0.2

functions 1 8 string
time:T=(T+dt)
continuity:rho_dot=((-(rho*sph_D00(v,mass,rho,Wp52220)))+(((0.1*c)*h)*sph_L00(rho,mass,rho,Wp52220)))
irho:rho=(rho+int1((rho_dot,dt))
EOS:p=(((c^2)*(rho-rho0))+10000)
euler:a=if((gid,(0*v),(((-((1/rho)*sph_G11(p,mass,rho,Wp52220)))+(0.01*sph_L00(v,mass,rho,Wp52220)))+g))
vel:v=(v+int1((a,dt))
pos:r=(r+int1((v,dt))
new_dt:dt=(CFL*min((sqrt(((h/fmax(magnitude((a)))),(h/c)))

POINTS 2798 float
-0.5375 -0.4875 0 -0.5125 -0.4625 0 -0.5125 -0.4875 0 
-0.5375 -0.4625 0 -0.487805 -0.4875 0 -0.463415 -0.4625 0 
-0.487805 -0.4625 0 -0.463415 -0.4875 0 -0.439024 -0.4625 0 
-0.414634 -0.4625 0 -0.414634 -0.4875 0 -0.439024 -0.4875 0 
-0.365854 -0.4875 0 -0.390244 -0.4625 0 -0.390244 -0.4875 0 
-0.365854 -0.4625 0 -0.341463 -0.4875 0 -0.341463 -0.4625 0 
-0.317073 -0.4875 0 -0.317073 -0.4625 0 -0.268293 -0.4625 0 
-0.292683 -0.4625 0 -0.292683 -0.4875 0 -0.268293 -0.4875 0 
-0.219512 -0.4875 0 -0.219512 -0.4625 0 -0.243902 -0.4875 0 
-0.243902 -0.4625 0 -0.195122 -0.4625 0 -0.170732 -0.4875 0 
-0.170732 -0.4625 0 -0.195122 -0.4875 0 -0.146341 -0.4625 0 
-0.121951 -0.4625 0 -0.146341 -0.4875 0 -0.121951 -0.4875 0 
-0.0731707 -0.4625 0 -0.0731707 -0.4875 0 -0.097561 -0.4875 0 
-0.097561 -0.4625 0 -1.86265e-08 -0.4875 0 -0.0487805 -0.4875 0 
-0.0487805 -0.4625 0 -1.86265e-08 -0.4625 0 -0.0243903 -0.4875 0 
-0.0243903 -0.4625 0 0.0243902 -0.4875 0 0.0487805 -0.4625 0 
0.0487805 -0.4875 0 0.0243902 -0.4625 0 0.097561 -0.4875 0 
0.097561 -0.4625 0 0.0731707 -0.4875 0 0.0731707 -0.4625 0 
0.146341 -0.4625 0 0.121951 -0.4875 0 0.121951 -0.4625 0 
0.146341 -0.4875 0 0.170732 -0.4625 0 0.170732 -0.4875 0 
0.195122 -0.4875 0 0.195122 -0.4625 0 0.219512 -0.4875 0 
0.219512 -0.4625 0 0.243902 -0.4625 0 0.243902 -0.4875 0 
0.292683 -0.4875 0 0.292683 -0.4625 0 0.268293 -0.4625 0 
0.268293 -0.4875 0 0.317073 -0.4625 0 0.341463 -0.4875 0 
0.341463 -0.4625 0 0.317073 -0.4875 0 0.365854 -0.4625 0 
0.390244 -0.4625 0 0.390244 -0.4875 0 0.365854 -0.4875 0 
0.414634 -0.4625 0 0.439024 -0.4625 0 0.414634 -0.4875 0 
0.439024 -0.4875 0 0.463415 -0.4875 0 0.487805 -0.4625 0 
0.487805 -0.4875 0 0.463415 -0.4625 0 0.5375 -0.4875 0 
0.5125 -0.4875 0 0.5375 -0.4625 0 0.5125 -0.4625 0 
-0.5125 -0.4375 0 -0.5375 -0.4375 0 -0.5125 -0.4125 0 
-0.5375 -0.4125 0 -0.466799 -0.439076 0 -0.490704 -0.43399 0 
-0.472205 -0.41492 0 -0.491508 -0.40054 0 -0.407416 -0.421865 0 
-0.445122 -0.433578 0 -0.435046 -0.412497 0 -0.421725 -0.439994 0 
-0.373512 -0.40977 0 -0.350146 -0.411167 0 -0.369115 -0.435016 0 
-0.393795 -0.402083 0 -0.391214 -0.438193 0 -0.327496 -0.41066 0 
-0.305582 -0.408543 0 -0.346047 -0.437705 0 -0.322621 -0.436551 0 
-0.300192 -0.436214 0 -0.260006 -0.40833 0 -0.254462 -0.435208 0 
-0.282685 -0.412044 0 -0.276839 -0.437582 0 -0.233066 -0.436707 0 
-0.237821 -0.408149 0 -0.215399 -0.410925 0 -0.210413 -0.43624 0 
-0.159057 -0.40046 0 -0.164778 -0.439829 0 -0.176944 -0.414968 0 
-0.196846 -0.400103 0 -0.189566 -0.434935 0 -0.114189 -0.410717 0 
-0.12805 -0.43883 0 -0.147044 -0.427666 0 -0.105313 -0.4351 0 
-0.135752 -0.405463 0 -0.0838348 -0.436274 0 -0.0609844 -0.437232 0 
-0.070096 -0.411001 0 -0.0917478 -0.406928 0 -0.0483955 -0.406179 0 
-0.0256226 -0.408912 0 -0.00265765 -0.413694 0 -0.0186137 -0.437802 0 
-0.04 -0.43354 0 0.0477298 -0.438081 0 0.0304785 -0.408104 0 
0.0262109 -0.432631 0 0.00568919 -0.437357 0 0.0969421 -0.410082 0 
0.0533893 -0.410442 0 0.0699832 -0.435046 0 0.0916359 -0.436722 0 
0.0753825 -0.407067 0 0.114517 -0.436781 0 0.137923 -0.437634 0 
0.119773 -0.410989 0 0.143398 -0.412726 0 0.162085 -0.437801 0 
0.190321 -0.409028 0 0.184849 -0.435662 0 0.166653 -0.41173 0 
0.233307 -0.439516 0 0.207516 -0.437693 0 0.239402 -0.416474 0 
0.214122 -0.414281 0 0.258769 -0.43707 0 0.276883 -0.415479 0 
0.28313 -0.438487 0 0.256449 -0.403695 0 0.327745 -0.420002 0 
0.339052 -0.439846 0 0.342386 -0.401819 0 0.309387 -0.439558 0 
0.302774 -0.415248 0 0.387823 -0.419882 0 0.39621 -0.439577 0 
0.367388 -0.439838 0 0.358705 -0.419344 0 0.405852 -0.402858 0 
0.42079 -0.420267 0 0.424917 -0.440492 0 0.449489 -0.421429 0 
0.486542 -0.440014 0 0.455797 -0.440791 0 0.480306 -0.421522 0 
0.491618 -0.400962 0 0.463149 -0.401719 0 0.5375 -0.4125 0 
0.5125 -0.4125 0 0.5375 -0.4375 0 0.5125 -0.4375 0 
-0.5375 -0.3625 0 -0.5125 -0.3625 0 -0.5375 -0.3875 0 
-0.5125 -0.3875 0 -0.490083 -0.362736 0 -0.459266 -0.365666 0 
-0.477317 -0.381788 0 -0.455988 -0.399491 0 -0.440524 -0.381112 0 
-0.418823 -0.368188 0 -0.437746 -0.351394 0 -0.418415 -0.395545 0 
-0.396477 -0.375633 0 -0.354231 -0.356897 0 -0.374708 -0.350733 0 
-0.353155 -0.385316 0 -0.374169 -0.379611 0 -0.330343 -0.383678 0 
-0.308756 -0.380394 0 -0.332308 -0.357054 0 -0.311378 -0.350995 0 
-0.286099 -0.386066 0 -0.263614 -0.381552 0 -0.267633 -0.354905 0 
-0.289549 -0.359421 0 -0.241269 -0.380849 0 -0.245221 -0.353366 0 
-0.223976 -0.352859 0 -0.219477 -0.382208 0 -0.201496 -0.368623 0 
-0.159292 -0.371172 0 -0.179488 -0.383651 0 -0.182701 -0.354836 0 
-0.137253 -0.379679 0 -0.1403 -0.35184 0 -0.116988 -0.357422 0 
-0.113588 -0.382943 0 -0.0681455 -0.358299 0 -0.0924847 -0.356373 0 
-0.0658876 -0.383223 0 -0.089894 -0.381628 0 -0.0178055 -0.385274 0 
-0.0187546 -0.356957 0 -0.0424891 -0.3562 0 -0.0415178 -0.380318 0 
0.0482892 -0.384213 0 0.00211119 -0.371976 0 0.0278206 -0.376184 0 
0.0346535 -0.351941 0 0.010871 -0.396357 0 0.0701964 -0.379502 0 
0.0811729 -0.352768 0 0.0572002 -0.355596 0 0.0921685 -0.381135 0 
0.113831 -0.384577 0 0.1376 -0.387034 0 0.127511 -0.361512 0 
0.103951 -0.355488 0 0.185824 -0.385592 0 0.178326 -0.36097 0 
0.152787 -0.3623 0 0.161373 -0.386154 0 0.205333 -0.372292 0 
0.217677 -0.392332 0 0.239243 -0.384149 0 0.233662 -0.362357 0 
0.265553 -0.356743 0 0.263549 -0.378216 0 0.294445 -0.371671 0 
0.284849 -0.39203 0 0.312572 -0.393982 0 0.316431 -0.362349 0 
0.332048 -0.379653 0 0.358326 -0.380258 0 0.382153 -0.363227 0 
0.391591 -0.383461 0 0.373378 -0.399011 0 0.354606 -0.358613 0 
0.435526 -0.39916 0 0.408572 -0.359634 0 0.419979 -0.380681 0 
0.436859 -0.361589 0 0.489447 -0.361965 0 0.479903 -0.381009 0 
0.452441 -0.379521 0 0.463086 -0.35643 0 0.5375 -0.3875 0 
0.5125 -0.3625 0 0.5375 -0.3625 0 0.5125 -0.3875 0 
-0.5375 -0.3375 0 -0.5125 -0.3375 0 -0.5125 -0.3125 0 
-0.5375 -0.3125 0 -0.489045 -0.334924 0 -0.488483 -0.308152 0 
-0.466802 -0.314031 0 -0.468073 -0.343384 0 -0.406906 -0.316736 0 
-0.446655 -0.328687 0 -0.431468 -0.311022 0 -0.417694 -0.338162 0 
-0.397062 -0.349074 0 -0.384292 -0.323852 0 -0.361201 -0.325219 0 
-0.302389 -0.305658 0 -0.340633 -0.33035 0 -0.319677 -0.324028 0 
-0.277209 -0.303724 0 -0.294521 -0.331073 0 -0.271964 -0.328896 0 
-0.253101 -0.299986 0 -0.207999 -0.309667 0 -0.205878 -0.338725 0 
-0.227838 -0.322965 0 -0.249074 -0.326164 0 -0.166833 -0.312495 0 
-0.186226 -0.326309 0 -0.163225 -0.342591 0 -0.123234 -0.305258 0 
-0.123073 -0.330889 0 -0.146135 -0.32297 0 -0.0733187 -0.332312 0 
-0.0983819 -0.308491 0 -0.0735476 -0.308184 0 -0.0506063 -0.303204 0 
-0.0987949 -0.332665 0 -0.0170395 -0.334432 0 -0.0500774 -0.33376 0 
-0.0022023 -0.30365 0 -0.0319652 -0.318128 0 0.0286967 -0.302699 0 
0.0052916 -0.324947 0 0.0101975 -0.349298 0 0.0299338 -0.325653 0 
0.0534901 -0.328586 0 0.0938452 -0.31324 0 0.0582033 -0.305707 0 
0.0771768 -0.329239 0 0.108042 -0.332298 0 0.134404 -0.338584 0 
0.128336 -0.315463 0 0.16077 -0.33902 0 0.183326 -0.318821 0 
0.156041 -0.316829 0 0.189575 -0.340389 0 0.247754 -0.314415 0 
0.211059 -0.3497 0 0.207282 -0.313688 0 0.245336 -0.342185 0 
0.229596 -0.300431 0 0.2238 -0.329654 0 0.287255 -0.318987 0 
0.288638 -0.348181 0 0.267695 -0.328989 0 0.30859 -0.335065 0 
0.332683 -0.321469 0 0.333164 -0.346625 0 0.311078 -0.308288 0 
0.346667 -0.303282 0 0.357155 -0.333415 0 0.381525 -0.341813 0 
0.370184 -0.313502 0 0.395528 -0.323614 0 0.438039 -0.337591 0 
0.404294 -0.303155 0 0.414595 -0.337871 0 0.427198 -0.312315 0 
0.46284 -0.331984 0 0.451784 -0.311703 0 0.486634 -0.338278 0 
0.489697 -0.314751 0 0.47452 -0.300356 0 0.5375 -0.3125 0 
0.5125 -0.3125 0 0.5375 -0.3375 0 0.5125 -0.3375 0 
-0.5375 -0.2875 0 -0.5125 -0.2625 0 -0.5125 -0.2875 0 
-0.5375 -0.2625 0 -0.487039 -0.284399 0 -0.464611 -0.274742 0 
-0.489675 -0.258728 0 -0.454395 -0.294846 0 -0.439013 -0.267066 0 
-0.417568 -0.251535 0 -0.401714 -0.29376 0 -0.427901 -0.287265 0 
-0.405454 -0.270154 0 -0.379406 -0.273977 0 -0.352855 -0.299341 0 
-0.356346 -0.272072 0 -0.376571 -0.29875 0 -0.33102 -0.299943 0 
-0.3151 -0.256307 0 -0.311258 -0.282721 0 -0.334535 -0.271755 0 
-0.25985 -0.276272 0 -0.285494 -0.280972 0 -0.290235 -0.258135 0 
-0.265199 -0.25329 0 -0.212208 -0.25844 0 -0.230457 -0.294435 0 
-0.208127 -0.282205 0 -0.235502 -0.269577 0 -0.184055 -0.269393 0 
-0.161327 -0.256848 0 -0.186751 -0.296513 0 -0.163308 -0.284501 0 
-0.143317 -0.294225 0 -0.121802 -0.276187 0 -0.140746 -0.264083 0 
-0.107134 -0.253603 0 -0.10102 -0.284488 0 -0.0511627 -0.27898 0 
-0.0758344 -0.282754 0 -0.0846907 -0.261206 0 -0.0553638 -0.256466 0 
-0.00248608 -0.269531 0 -0.0227403 -0.29468 0 -0.0277024 -0.271982 0 
0.0314618 -0.265646 0 0.0459933 -0.284604 0 0.01343 -0.283853 0 
0.088274 -0.25741 0 0.0987646 -0.279366 0 0.0676804 -0.271946 0 
0.0788896 -0.294368 0 0.0546762 -0.252187 0 0.131951 -0.277807 0 
0.114219 -0.297153 0 0.148577 -0.257923 0 0.146646 -0.295529 0 
0.117059 -0.260365 0 0.176409 -0.296463 0 0.191392 -0.268813 0 
0.173771 -0.250751 0 0.165029 -0.276547 0 0.2017 -0.289705 0 
0.213865 -0.25716 0 0.225671 -0.277121 0 0.243498 -0.254552 0 
0.289189 -0.293215 0 0.250951 -0.280474 0 0.268378 -0.263833 0 
0.265995 -0.297608 0 0.29044 -0.270948 0 0.345108 -0.281088 0 
[...]
POINT_DATA 2798
SCALARS id float
LOOKUP_TABLE default
2600 2621 2620 2601 2640 2643 2641 2642 2645 
2647 2646 2644 2650 2649 2648 2651 2652 2653 
2654 2655 2659 2657 2656 2658 2662 2663 2660 
2661 2665 2666 2667 2664 2669 2671 2668 2670 
2675 2674 2672 2673 2680 2676 2677 2681 2678 
2679 2682 2685 2684 2683 2688 2689 2686 2687 
2693 2690 2691 2692 2695 2694 2696 2697 2698 
2699 2701 2700 2704 2705 2703 2702 2707 2708 
2709 2706 2711 2713 2712 2710 2715 2717 2714 
2716 2718 2721 2720 2719 2742 2722 2743 2723 
2622 2602 2623 2603 1678 1660 1714 1697 1804 
1732 1840 1786 1967 1912 1876 1949 1858 1948 
2129 1894 1930 1984 2165 2038 2147 2020 2056 
2183 2201 2074 2218 2110 2237 2219 2092 2310 
2146 2128 2164 2291 2182 2200 2328 2329 2330 
2331 2347 2254 2236 2309 2349 2290 2272 2364 
2365 2308 2327 2366 2326 2346 2368 2372 2348 
2370 2345 2363 2362 2344 2371 2383 2380 2390 
2386 2090 2391 2367 1341 2382 2231 2373 2389 
2381 280 1183 2301 2388 2387 2384 2385 2355 
320 1321 2745 2725 2744 2724 2605 2625 2604 
2624 1661 1768 1696 1823 1822 1877 1841 1913 
1931 2057 1985 2093 1966 2111 2130 2112 2131 
2148 2166 2203 2167 2184 2202 2238 2220 2256 
2273 2255 2274 2311 2315 2300 2313 2317 2283 
2316 2332 2334 2335 2336 2333 2354 2352 2351 
2318 2350 2369 1461 2284 2337 1620 1122 1181 
1460 0 1281 1201 340 1141 2267 1101 1520 
1766 1420 1400 2213 1221 1784 1440 1729 1891 
1001 1121 1713 1081 1675 1712 1818 1300 1767 
1873 1819 2746 2727 2747 2726 2606 2626 2627 
2607 1715 1679 1787 1750 1895 1805 1842 1859 
1914 1986 2003 2186 2075 2149 2222 2185 2221 
2258 2293 2275 2257 2239 2314 2292 2312 2265 
2247 2282 2230 2212 2018 21 2125 2248 2266 
1362 2142 1481 1875 2353 2195 60 1161 100 
20 1541 1261 1820 1540 1802 1580 1241 762 
1040 1942 1749 1979 900 820 1853 1120 1909 
1962 1560 1785 80 1180 542 1709 1997 1080 
1961 1783 2325 1945 1927 1220 2145 1676 2749 
2729 2748 2728 2608 2629 2628 2609 1733 1806 
1662 1824 1843 1896 1950 1860 1932 2022 2002 
2021 2004 2094 2076 2113 2039 2240 2204 2150 
2223 2277 2276 2294 2259 2278 2297 2295 2296 
2299 2281 2298 2263 2264 1929 2229 2194 2054 
120 1441 1522 1361 1561 1521 1 1600 40 
1301 180 1910 1928 1963 160 1731 1892 462 
1926 1837 1693 2034 2016 2033 1908 1856 2051 
1874 2102 1999 1890 2032 2069 1746 2086 1814 
1100 1889 1762 1283 2031 2067 1674 1140 2306 
2288 2731 2751 2750 2730 2611 2610 2631 2630 
1769 1734 1698 1716 1878 1862 1861 1825 2023 
1933 2041 2040 2005 2058 2077 2095 2096 2059 
2132 2224 2168 2206 2242 2241 2208 2261 2225 
2279 2260 2243 2262 2244 2280 2246 2226 2245 
2209 2228 2124 1581 2072 2211 140 1821 1838 
1946 1893 1803 2107 2070 1982 1839 1998 1857 
1981 1964 1980 2017 2000 2015 2088 2049 2050 
1708 2084 2234 1906 1745 1978 1799 1673 2303 
2357 1282 2251 2232 1710 1760 1888 1996 2752 
2753 2733 2732 2632 2613 2633 2612 1680 1752 
1788 1751 1968 1915 1844 1879 1951 2024 2060 
1987 2042 1969 2078 2079 2097 2061 2169 2114 
2080 2098 2205 2207 2191 2115 2188 2156 2189 
2190 2172 2174 2173 2155 2139 2100 1941 2140 
2136 2227 2123 2065 2171 2192 2177 2210 2158 
2154 2193 2159 2176 2035 1911 2053 2141 2087 
2036 2089 2071 2052 2068 2106 2121 2122 2105 
2085 2104 2103 2014 2118 1944 2013 1797 1795 
1723 1740 1742 2320 1815 1142 2250 240 2323 
1695 1061 404 2755 2735 2734 2754 2615 2635 
2634 2614 1717 1735 1663 1770 1807 1881 1880 
1826 1934 1953 1952 1897 1988 2006 2062 2043 
2081 2045 2063 2133 2028 2010 2099 2027 2046 
2187 2064 2116 2029 2151 1993 1977 2152 2170 
2134 2117 2135 2082 1959 2047 2012 2153 1835 
2157 2175 2120 2101 2138 1852 2137 1870 1816 
2119 2083 1794 1871 2048 1711 1705 1689 1960 
1925 1851 2066 1995 1780 1798 1777 1775 2215 
1727 1779 2356 1776 1670 1741 1757 2143 783 
1686 2374 2737 2757 2736 2756 2637 2617 2636 
2616 1789 1699 1771 1753 1898 1917 1899 1954 
1989 1970 1916 1935 1971 2007 2008 2026 2025 
1827 2044 1955 1991 1920 1973 2009 1956 1885 
1992 1829 1974 1320 1924 1701 1939 1903 1957 
1905 1975 1867 1868 1958 1847 1817 1831 1849 
2030 1904 2011 1887 1940 1773 1923 1922 1781 
1702 1684 1811 1667 1830 1869 1758 1813 541 
2160 1669 1793 1755 1994 1722 1739 1703 861 
1812 1854 1834 1685 1886 1850 1021 260 682 
2377 980 2758 2739 2759 2738 2565 2567 2566 
2564 2570 2571 2568 2569 2572 2573 2574 2575 
2577 2579 2576 2578 2580 2581 2583 2582 2587 
2585 2584 2586 2591 2589 2590 2588 2592 2595 
2594 2593 2598 2599 2596 2597 2638 2618 2619 
2639 1718 1808 1790 1681 2199 1700 1863 1901 
1882 1900 1918 1919 1936 1972 1990 1883 1480 
1902 2037 1937 1846 1809 1938 1845 1665 1500 
1737 1736 1719 780 1664 2307 1380 1263 1682 
720 1976 1884 220 1866 1828 1683 1242 1754 
1921 2342 1041 1200 1792 482 1848 1102 1810 
680 1601 822 1260 1692 1062 1564 1782 223 
1706 1983 862 460 881 200 1907 263 141 
1668 561 1677 1401 2338 1222 1262 1721 2740 
2761 2760 2741 2764 2763 2762 2765 2768 2766 
2769 2767 2771 2770 2772 2773 2774 2776 2775 
2777 2778 2780 2781 2779 2785 2784 2783 2782 
2787 2788 2789 2786 2791 2790 2793 2792 2796 
2797 2795 2794 2214 441 1726 302 1543 521 
241 422 381 2361 401 2397 681 2376 1943 
2359 343 361 1728 382 1725 800 1022 1671 
403 883 1763 1778 2396 1744 601 1184 903 
1743 1947 2394 640 1759 461 1043 1672 2252 
1688 1023 2287 2019 2343 1582 1303 181 803 
2358 1761 163 41 2341 2302 1003 761 1382 
763 1044 823 1730 2179 1864 2378 520 744 
983 806 1690 1855 201 2304 2339 2270 1836 
1063 1772 1765 1865 840 2180 2321 884 1801 
341 1747 2253 2217 2233 625 1800 421 162 
2395 1422 1544 1105 1791 1748 1738 2091 2197 
1144 1666 802 1720 2109 1145 1383 1045 1004 
845 1064 1302 1641 1124 1385 941 2285 921 
1704 261 981 2392 901 1832 420 1643 2269 
2181 1756 860 2319 701 920 1774 123 940 
843 1240 620 742 1202 3 1364 641 264 
321 463 423 442 2178 600 124 1000 101 
1691 1605 1160 2249 43 1424 1423 1280 1360 
2322 2379 1604 986 121 122 1227 84 721 
1304 1365 380 103 1525 23 262 102 4 
1965 1207 1585 440 1182 740 801 621 105 
62 2126 1485 1523 1642 1504 1796 224 282 
1623 962 242 2198 301 1342 703 2375 760 
1502 222 1833 323 1621 661 304 1402 781 
1322 2271 1707 1542 841 961 1724 1421 1243 
804 1020 723 741 342 1223 1123 582 602 
923 2305 1162 284 622 702 2360 161 563 
643 444 1185 366 963 583 821 2055 503 
2235 2161 2393 982 2163 844 864 502 902 
1042 623 984 1103 1083 543 943 2289 1060 
464 2108 904 1483 743 300 2196 764 724 
605 665 766 660 1872 964 1602 360 81 
705 1264 22 1764 281 480 61 1501 1694 
2340 363 2268 402 1224 500 83 1404 1344 
42 1403 362 1066 221 143 1443 700 182 
1086 1340 540 481 104 501 1025 560 2162 
666 985 1087 1125 945 907 1085 1343 1384 
1345 868 847 827 2286 2001 849 1503 848 
728 1186 1046 967 688 1323 400 1006 63 
1462 1067 1325 987 1265 1524 1126 1007 1088 
1005 722 927 1644 1286 1603 1565 1187 1505 
1622 1266 6 2 1425 1405 144 44 85 
1406 283 1267 5 1583 960 383 580 1687 
184 922 27 1645 26 25 782 203 1381 
880 522 1547 364 245 305 324 325 64 
2216 1082 243 86 322 1203 225 662 1204 
285 165 66 65 1002 942 683 166 147 
186 365 1647 164 642 483 205 405 581 
385 562 684 345 1163 664 286 663 1640 
863 544 786 603 523 882 825 247 704 
566 307 842 624 824 1143 805 604 484 
1024 327 626 1363 485 584 785 506 745 
347 2324 746 546 1106 924 545 905 646 
725 687 765 685 547 1563 1482 2127 1065 
1164 1463 1225 686 527 866 507 487 944 
1562 606 1442 1244 1084 887 865 965 788 
906 867 727 886 767 747 846 707 668 
628 648 589 748 590 1366 1047 966 689 
1165 946 926 888 947 828 1205 829 948 
850 908 1346 1026 1226 2144 1128 82 1584 
1284 1324 1285 2073 1127 1545 142 1246 1167 
1305 1464 1208 1228 1247 1148 1466 1110 1465 
1426 1444 1624 1387 1484 1090 1446 1367 1486 
24 1567 1386 1546 45 1487 183 344 1368 
1445 244 1586 443 1625 1506 1527 1428 204 
1566 1448 1468 1447 46 1388 1526 1408 1409 
303 1627 1607 1646 202 7 185 1528 47 
1587 125 206 146 266 424 126 226 145 
167 187 326 384 306 287 246 386 265 
208 346 227 228 108 209 207 564 229 
189 149 168 565 267 188 644 645 585 
504 248 526 425 784 524 406 505 446 
308 486 426 465 586 525 466 787 1104 
925 387 348 367 427 468 488 467 447 
448 826 885 706 567 607 627 587 807 
647 508 568 726 489 528 549 588 608 
510 569 667 529 570 550 708 629 709 
669 670 768 869 808 729 690 769 928 
749 1206 1027 890 889 870 851 830 968 
909 891 1245 1107 1146 1069 1166 1008 1068 
1108 1089 1049 1109 1009 1147 1029 1048 1188 
1030 1010 1209 1050 1149 1130 1306 1129 1168 
1347 1229 1091 1070 1326 1111 1307 1287 1427 
1189 1248 1407 1268 1348 1328 1327 1308 1309 
1467 1288 1329 1290 1310 1488 1349 1289 1606 
1626 1369 1548 1429 1449 1507 1508 1608 1588 
1568 67 1529 87 1628 1569 8 1589 1648 
28 1609 106 1629 88 48 1649 127 68 
9 49 148 30 29 69 107 128 70 
50 89 130 129 109 268 169 288 249 
210 170 269 190 289 191 250 309 328 
270 445 290 329 407 271 251 310 349 
369 388 408 368 389 409 449 429 390 
410 428 469 430 450 411 548 451 470 
511 490 491 509 530 512 609 551 592 
591 610 649 630 671 650 611 631 691 
672 710 651 809 789 730 711 750 770 
731 791 790 810 771 811 871 831 910 
988 892 1028 930 949 970 931 989 990 
969 991 950 971 951 1012 992 1011 1031 
1032 1071 1052 1051 1112 1131 1093 1092 1151 
1150 1169 1132 1170 1230 1190 1210 1249 1211 
1269 1231 1250 1232 1270 1291 1330 1311 1292 
1331 1370 1350 1469 1389 1509 1489 1549 1470 
1490 1450 1430 1530 1471 1510 1491 1531 1511 
1550 1570 1590 1610 1551 1571 1572 1592 1611 
1630 1591 1650 1631 1632 11 1651 51 10 
31 71 91 90 111 131 110 150 132 
133 171 153 152 151 211 173 172 230 
232 212 233 231 252 254 234 253 272 
291 292 330 293 350 332 311 331 370 
351 372 352 392 412 391 371 413 452 
431 433 471 432 472 494 493 473 492 
553 532 531 573 594 571 572 552 614 
613 612 593 674 633 652 653 632 692 
713 673 693 712 732 753 751 733 772 
752 773 793 832 792 852 812 873 872 
911 874 929 893 914 913 912 952 973 
953 933 932 972 993 1013 1034 1053 1033 
1054 1074 1113 1072 1073 1134 1133 1094 1152 
1153 1172 1171 1192 1212 1191 1213 1233 1251 
1253 1274 1252 1271 1272 1293 1332 1312 1352 
1351 1313 1371 1390 1392 1372 1410 1411 1391 
1431 1412 1452 1472 1451 1453 1432 1473 1513 
1492 1493 1512 1533 1532 1553 1552 1593 1573 
1594 1574 1614 1633 1653 1612 1613 32 1652 
12 33 52 72 73 53 134 93 92 
112 113 155 154 175 194 174 235 195 
192 193 214 213 273 274 294 395 414 
353 313 312 373 435 455 394 616 393 
434 454 475 636 515 495 534 453 474 
575 513 514 595 555 736 554 533 756 
796 574 635 615 655 715 634 675 654 
755 694 775 996 734 795 714 976 754 
774 835 815 814 813 794 834 833 854 
853 995 975 895 875 894 915 1035 934 
1015 1055 954 974 1075 1014 994 1095 1216 
1175 1195 1155 1136 1115 1336 1154 1194 1135 
1114 1255 1235 1174 1295 1275 1193 1173 1234 
1254 1355 1315 1375 1273 1294 1335 1395 1394 
1314 1415 1334 1393 1354 1374 1333 1353 1596 
1414 1434 1373 1475 1454 1495 1413 1515 1474 
1535 1433 1575 1514 1494 1555 1534 96 1554 
1615 1595 76 15 136 1655 1635 1634 1654 
14 55 34 75 95 13 156 74 54 
94 215 276 114 176 375 196 296 135 
295 275 436 354 315 333 374 255 314 
456 415 957 516 535 536 556 576 937 
178 218 596 977 1037 1017 1057 997 656 
1077 278 676 298 716 696 1097 1137 1117 
856 1177 1217 836 1237 816 418 876 1257 
776 695 1277 936 1317 735 1297 1357 956 
1337 1036 1377 1397 1016 1437 1417 916 1056 
896 935 1076 1457 1096 1477 1116 855 955 
1497 1156 1537 1517 1157 1176 1577 1196 1557 
1597 1215 1236 1617 1637 1657 1256 1276 1296 
37 1316 17 1214 57 1356 1376 77 97 
1396 1436 137 117 1416 1456 157 1496 177 
1476 197 1516 217 1435 1536 277 237 297 
317 1556 1455 357 337 1616 1576 397 1656 
1636 417 457 1338 36 16 437 497 376 
477 56 257 537 116 517 557 216 35 
577 597 617 256 236 377 637 336 316 
356 697 115 335 334 737 717 355 416 
396 777 757 58 38 837 817 857 476 
897 496 139 917 159 179 239 259 238 
199 258 279 299 198 359 219 318 339 
319 379 338 399 1197 358 419 378 439 
459 438 479 398 519 539 458 499 498 
579 478 559 599 518 538 619 639 558 
659 598 679 578 699 719 618 739 759 
638 658 799 779 678 839 819 698 718 
758 738 859 879 899 919 798 778 818 
939 959 979 838 878 999 1019 858 898 
918 1059 1039 938 958 1099 1079 978 1139 
1119 998 1159 1058 1038 1018 1179 1199 1078 
1098 1219 1239 1279 1259 1138 1118 1319 1299 
1178 1158 1339 1359 1218 1198 1379 1258 1399 
1238 1278 1419 1298 1439 1459 1479 1358 1318 
1519 1378 1499 1398 1418 1539 1438 1559 1579 
1478 1458 1619 1498 1518 1599 1538 657 1578 
1558 1639 1618 1598 677 1659 19 1638 39 
18 59 1658 797 99 78 79 877 119 
138 98 118 158 2400 2399 2401 2398 2405 
2403 2404 2402 2408 2406 2407 2409 2413 2410 
2412 2411 2414 2416 2415 2417 2419 2421 2420 
2418 2422 2424 2425 2427 2423 2426 2429 2430 
2428 2431 2435 2432 2434 2433 2438 2437 2436 
2439 2440 2443 2441 2442 2446 2444 2445 2447 
2451 2450 2449 2448 2455 2452 2454 2453 2456 
2457 2459 2458 2462 2460 2463 2461 2467 2465 
2466 2464 2469 2468 2471 2470 2472 2473 2475 
2474 2480 2478 2481 2479 2477 2476 2482 2483 
2484 2485 2488 2487 2486 2489 2492 2493 2491 
2490 2497 2496 2495 2494 2500 2499 2501 2498 
2505 2503 2502 2504 2507 2506 2508 2509 2512 
2510 2511 2513 2514 2515 2516 2517 2518 2521 
2519 2520 2523 2524 2522 2525 2527 2526 2528 
2529 2530 2531 2532 2533 2538 2539 2537 2535 
2534 2536 2542 2541 2543 2540 2547 2546 2544 
2545 2550 2551 2549 2548 2552 2553 2555 2554 
2558 2556 2557 2559 2560 2561 2562 2563 
FIELD FieldData 7
r 3 2798 float
-0.5375 -0.4875 0 -0.5125 -0.4625 0 -0.5125 -0.4875 0 
-0.5375 -0.4625 0 -0.487805 -0.4875 0 -0.463415 -0.4625 0 
-0.487805 -0.4625 0 -0.463415 -0.4875 0 -0.439024 -0.4625 0 
-0.414634 -0.4625 0 -0.414634 -0.4875 0 -0.439024 -0.4875 0 
-0.365854 -0.4875 0 -0.390244 -0.4625 0 -0.390244 -0.4875 0 
-0.365854 -0.4625 0 -0.341463 -0.4875 0 -0.341463 -0.4625 0 
-0.317073 -0.4875 0 -0.317073 -0.4625 0 -0.268293 -0.4625 0 
-0.292683 -0.4625 0 -0.292683 -0.4875 0 -0.268293 -0.4875 0 
-0.219512 -0.4875 0 -0.219512 -0.4625 0 -0.243902 -0.4875 0 
-0.243902 -0.4625 0 -0.195122 -0.4625 0 -0.170732 -0.4875 0 
-0.170732 -0.4625 0 -0.195122 -0.4875 0 -0.146341 -0.4625 0 
-0.121951 -0.4625 0 -0.146341 -0.4875 0 -0.121951 -0.4875 0 
-0.0731707 -0.4625 0 -0.0731707 -0.4875 0 -0.097561 -0.4875 0 
-0.097561 -0.4625 0 -1.86265e-08 -0.4875 0 -0.0487805 -0.4875 0 
-0.0487805 -0.4625 0 -1.86265e-08 -0.4625 0 -0.0243903 -0.4875 0 
-0.0243903 -0.4625 0 0.0243902 -0.4875 0 0.0487805 -0.4625 0 
0.0487805 -0.4875 0 0.0243902 -0.4625 0 0.097561 -0.4875 0 
0.097561 -0.4625 0 0.0731707 -0.4875 0 0.0731707 -0.4625 0 
0.146341 -0.4625 0 0.121951 -0.4875 0 0.121951 -0.4625 0 
0.146341 -0.4875 0 0.170732 -0.4625 0 0.170732 -0.4875 0 
0.195122 -0.4875 0 0.195122 -0.4625 0 0.219512 -0.4875 0 
0.219512 -0.4625 0 0.243902 -0.4625 0 0.243902 -0.4875 0 
0.292683 -0.4875 0 0.292683 -0.4625 0 0.268293 -0.4625 0 
0.268293 -0.4875 0 0.317073 -0.4625 0 0.341463 -0.4875 0 
0.341463 -0.4625 0 0.317073 -0.4875 0 0.365854 -0.4625 0 
0.390244 -0.4625 0 0.390244 -0.4875 0 0.365854 -0.4875 0 
0.414634 -0.4625 0 0.439024 -0.4625 0 0.414634 -0.4875 0 
0.439024 -0.4875 0 0.463415 -0.4875 0 0.487805 -0.4625 0 
0.487805 -0.4875 0 0.463415 -0.4625 0 0.5375 -0.4875 0 
0.5125 -0.4875 0 0.5375 -0.4625 0 0.5125 -0.4625 0 
-0.5125 -0.4375 0 -0.5375 -0.4375 0 -0.5125 -0.4125 0 
-0.5375 -0.4125 0 -0.466799 -0.439076 0 -0.490704 -0.43399 0 
-0.472205 -0.41492 0 -0.491508 -0.40054 0 -0.407416 -0.421865 0 
-0.445122 -0.433578 0 -0.435046 -0.412497 0 -0.421725 -0.439994 0 
-0.373512 -0.40977 0 -0.350146 -0.411167 0 -0.369115 -0.435016 0 
-0.393795 -0.402083 0 -0.391214 -0.438193 0 -0.327496 -0.41066 0 
-0.305582 -0.408543 0 -0.346047 -0.437705 0 -0.322621 -0.436551 0 
-0.300192 -0.436214 0 -0.260006 -0.40833 0 -0.254462 -0.435208 0 
-0.282685 -0.412044 0 -0.276839 -0.437582 0 -0.233066 -0.436707 0 
-0.237821 -0.408149 0 -0.215399 -0.410925 0 -0.210413 -0.43624 0 
-0.159057 -0.40046 0 -0.164778 -0.439829 0 -0.176944 -0.414968 0 
-0.196846 -0.400103 0 -0.189566 -0.434935 0 -0.114189 -0.410717 0 
-0.12805 -0.43883 0 -0.147044 -0.427666 0 -0.105313 -0.4351 0 
-0.135752 -0.405463 0 -0.0838348 -0.436274 0 -0.0609844 -0.437232 0 
-0.070096 -0.411001 0 -0.0917478 -0.406928 0 -0.0483955 -0.406179 0 
-0.0256226 -0.408912 0 -0.00265765 -0.413694 0 -0.0186137 -0.437802 0 
-0.04 -0.43354 0 0.0477298 -0.438081 0 0.0304785 -0.408104 0 
0.0262109 -0.432631 0 0.00568919 -0.437357 0 0.0969421 -0.410082 0 
0.0533893 -0.410442 0 0.0699832 -0.435046 0 0.0916359 -0.436722 0 
0.0753825 -0.407067 0 0.114517 -0.436781 0 0.137923 -0.437634 0 
0.119773 -0.410989 0 0.143398 -0.412726 0 0.162085 -0.437801 0 
0.190321 -0.409028 0 0.184849 -0.435662 0 0.166653 -0.41173 0 
0.233307 -0.439516 0 0.207516 -0.437693 0 0.239402 -0.416474 0 
0.214122 -0.414281 0 0.258769 -0.43707 0 0.276883 -0.415479 0 
0.28313 -0.438487 0 0.256449 -0.403695 0 0.327745 -0.420002 0 
0.339052 -0.439846 0 0.342386 -0.401819 0 0.309387 -0.439558 0 
0.302774 -0.415248 0 0.387823 -0.419882 0 0.39621 -0.439577 0 
0.367388 -0.439838 0 0.358705 -0.419344 0 0.405852 -0.402858 0 
0.42079 -0.420267 0 0.424917 -0.440492 0 0.449489 -0.421429 0 
0.486542 -0.440014 0 0.455797 -0.440791 0 0.480306 -0.421522 0 
0.491618 -0.400962 0 0.463149 -0.401719 0 0.5375 -0.4125 0 
0.5125 -0.4125 0 0.5375 -0.4375 0 0.5125 -0.4375 0 
-0.5375 -0.3625 0 -0.5125 -0.3625 0 -0.5375 -0.3875 0 
-0.5125 -0.3875 0 -0.490083 -0.362736 0 -0.459266 -0.365666 0 
-0.477317 -0.381788 0 -0.455988 -0.399491 0 -0.440524 -0.381112 0 
-0.418823 -0.368188 0 -0.437746 -0.351394 0 -0.418415 -0.395545 0 
-0.396477 -0.375633 0 -0.354231 -0.356897 0 -0.374708 -0.350733 0 
-0.353155 -0.385316 0 -0.374169 -0.379611 0 -0.330343 -0.383678 0 
-0.308756 -0.380394 0 -0.332308 -0.357054 0 -0.311378 -0.350995 0 
-0.286099 -0.386066 0 -0.263614 -0.381552 0 -0.267633 -0.354905 0 
-0.289549 -0.359421 0 -0.241269 -0.380849 0 -0.245221 -0.353366 0 
-0.223976 -0.352859 0 -0.219477 -0.382208 0 -0.201496 -0.368623 0 
-0.159292 -0.371172 0 -0.179488 -0.383651 0 -0.182701 -0.354836 0 
-0.137253 -0.379679 0 -0.1403 -0.35184 0 -0.116988 -0.357422 0 
-0.113588 -0.382943 0 -0.0681455 -0.358299 0 -0.0924847 -0.356373 0 
-0.0658876 -0.383223 0 -0.089894 -0.381628 0 -0.0178055 -0.385274 0 
-0.0187546 -0.356957 0 -0.0424891 -0.3562 0 -0.0415178 -0.380318 0 
0.0482892 -0.384213 0 0.00211119 -0.371976 0 0.0278206 -0.376184 0 
0.0346535 -0.351941 0 0.010871 -0.396357 0 0.0701964 -0.379502 0 
0.0811729 -0.352768 0 0.0572002 -0.355596 0 0.0921685 -0.381135 0 
0.113831 -0.384577 0 0.1376 -0.387034 0 0.127511 -0.361512 0 
0.103951 -0.355488 0 0.185824 -0.385592 0 0.178326 -0.36097 0 
0.152787 -0.3623 0 0.161373 -0.386154 0 0.205333 -0.372292 0 
0.217677 -0.392332 0 0.239243 -0.384149 0 0.233662 -0.362357 0 
0.265553 -0.356743 0 0.263549 -0.378216 0 0.294445 -0.371671 0 
0.284849 -0.39203 0 0.312572 -0.393982 0 0.316431 -0.362349 0 
0.332048 -0.379653 0 0.358326 -0.380258 0 0.382153 -0.363227 0 
0.391591 -0.383461 0 0.373378 -0.399011 0 0.354606 -0.358613 0 
0.435526 -0.39916 0 0.408572 -0.359634 0 0.419979 -0.380681 0 
0.436859 -0.361589 0 0.489447 -0.361965 0 0.479903 -0.381009 0 
0.452441 -0.379521 0 0.463086 -0.35643 0 0.5375 -0.3875 0 
0.5125 -0.3625 0 0.5375 -0.3625 0 0.5125 -0.3875 0 
-0.5375 -0.3375 0 -0.5125 -0.3375 0 -0.5125 -0.3125 0 
-0.5375 -0.3125 0 -0.489045 -0.334924 0 -0.488483 -0.308152 0 
-0.466802 -0.314031 0 -0.468073 -0.343384 0 -0.406906 -0.316736 0 
-0.446655 -0.328687 0 -0.431468 -0.311022 0 -0.417694 -0.338162 0 
-0.397062 -0.349074 0 -0.384292 -0.323852 0 -0.361201 -0.325219 0 
-0.302389 -0.305658 0 -0.340633 -0.33035 0 -0.319677 -0.324028 0 
-0.277209 -0.303724 0 -0.294521 -0.331073 0 -0.271964 -0.328896 0 
-0.253101 -0.299986 0 -0.207999 -0.309667 0 -0.205878 -0.338725 0 
-0.227838 -0.322965 0 -0.249074 -0.326164 0 -0.166833 -0.312495 0 
-0.186226 -0.326309 0 -0.163225 -0.342591 0 -0.123234 -0.305258 0 
-0.123073 -0.330889 0 -0.146135 -0.32297 0 -0.0733187 -0.332312 0 
-0.0983819 -0.308491 0 -0.0735476 -0.308184 0 -0.0506063 -0.303204 0 
-0.0987949 -0.332665 0 -0.0170395 -0.334432 0 -0.0500774 -0.33376 0 
-0.0022023 -0.30365 0 -0.0319652 -0.318128 0 0.0286967 -0.302699 0 