# vtk DataFile Version 4.0
vtk output
ASCII
DATASET POLYDATA
FIELD FieldData 4
domain 1 3 string
domain_min:-20|-15
domain_max:20|15
cell_size:0.05

variables 1 2 string
dt:0.000372678
T:1.68032

constants 1 10 string
xsize:2
ysize:1
csize:0.05
dx:0.0238095
h:0.025
rho0:1000
mass:0.566894
g:1|0
c:13.4164
CFL:0.2

functions 1 8 string
time:T=(T+dt)
continuity:rho_dot=((-(rho*sph_D00(v,mass,rho,Wp52220)))+(((0.1*c)*h)*sph_L00(rho,mass,rho,Wp52220)))
irho:rho=(rho+int1((rho_dot,dt))
EOS:p=(((c^2)*(rho-rho0))+10000)
euler:a=if((gid,(0*v),(((-((1/rho)*sph_G11(p,mass,rho,Wp52220)))+(0.01*sph_L00(v,mass,rho,Wp52220)))+g))
vel:v=(v+int1((a,dt))
pos:r=(r+int1((v,dt))
new_dt:dt=(CFL*min((sqrt(((h/fmax(magnitude((a)))),(h/c)))

POINTS 2798 float
-0.5125 -0.4625 0 -0.5125 -0.4875 0 -0.5375 -0.4625 0 
-0.5375 -0.4875 0 -0.487805 -0.4875 0 -0.487805 -0.4625 0 
-0.463415 -0.4875 0 -0.463415 -0.4625 0 -0.439024 -0.4625 0 
-0.414634 -0.4625 0 -0.414634 -0.4875 0 -0.439024 -0.4875 0 
-0.365854 -0.4875 0 -0.365854 -0.4625 0 -0.390244 -0.4625 0 
-0.390244 -0.4875 0 -0.341463 -0.4625 0 -0.317073 -0.4625 0 
-0.341463 -0.4875 0 -0.317073 -0.4875 0 -0.292683 -0.4625 0 
-0.268293 -0.4875 0 -0.292683 -0.4875 0 -0.268293 -0.4625 0 
-0.219512 -0.4875 0 -0.219512 -0.4625 0 -0.243902 -0.4875 0 
-0.243902 -0.4625 0 -0.170732 -0.4875 0 -0.195122 -0.4875 0 
-0.170732 -0.4625 0 -0.195122 -0.4625 0 -0.121951 -0.4875 0 
-0.121951 -0.4625 0 -0.146341 -0.4875 0 -0.146341 -0.4625 0 
-0.0731707 -0.4625 0 -0.097561 -0.4875 0 -0.0731707 -0.4875 0 
-0.097561 -0.4625 0 -0.0487805 -0.4875 0 -1.86265e-08 -0.4875 0 
-0.0487805 -0.4625 0 -1.86265e-08 -0.4625 0 -0.0243903 -0.4875 0 
-0.0243903 -0.4625 0 0.0487805 -0.4625 0 0.0243902 -0.4875 0 
0.0487805 -0.4875 0 0.0243902 -0.4625 0 0.0731707 -0.4875 0 
0.097561 -0.4625 0 0.0731707 -0.4625 0 0.097561 -0.4875 0 
0.146341 -0.4875 0 0.121951 -0.4875 0 0.121951 -0.4625 0 
0.146341 -0.4625 0 0.170732 -0.4625 0 0.195122 -0.4625 0 
0.195122 -0.4875 0 0.170732 -0.4875 0 0.219512 -0.4875 0 
0.219512 -0.4625 0 0.243902 -0.4875 0 0.243902 -0.4625 0 
0.292683 -0.4625 0 0.268293 -0.4875 0 0.292683 -0.4875 0 
0.268293 -0.4625 0 0.317073 -0.4875 0 0.317073 -0.4625 0 
0.341463 -0.4875 0 0.341463 -0.4625 0 0.365854 -0.4625 0 
0.365854 -0.4875 0 0.390244 -0.4875 0 0.390244 -0.4625 0 
0.414634 -0.4875 0 0.439024 -0.4875 0 0.414634 -0.4625 0 
0.439024 -0.4625 0 0.463415 -0.4625 0 0.487805 -0.4875 0 
0.487805 -0.4625 0 0.463415 -0.4875 0 0.5125 -0.4625 0 
0.5375 -0.4625 0 0.5375 -0.4875 0 0.5125 -0.4875 0 
-0.5375 -0.4125 0 -0.5125 -0.4375 0 -0.5375 -0.4375 0 
-0.5125 -0.4125 0 -0.489168 -0.408853 0 -0.488771 -0.436135 0 
-0.46589 -0.436618 0 -0.46649 -0.410184 0 -0.442757 -0.43656 0 
-0.419902 -0.411612 0 -0.443311 -0.410216 0 -0.419164 -0.437262 0 
-0.396129 -0.411721 0 -0.395174 -0.437401 0 -0.372862 -0.408905 0 
-0.350504 -0.409996 0 -0.372125 -0.435791 0 -0.32849 -0.404356 0 
-0.328528 -0.432541 0 -0.349443 -0.437691 0 -0.306928 -0.439 0 
-0.306338 -0.41145 0 -0.262927 -0.410921 0 -0.284903 -0.403056 0 
-0.285548 -0.432266 0 -0.264641 -0.437689 0 -0.241485 -0.436349 0 
-0.218939 -0.43595 0 -0.215969 -0.410878 0 -0.240216 -0.409567 0 
-0.196077 -0.438593 0 -0.178129 -0.426703 0 -0.166007 -0.404165 0 
-0.160214 -0.438858 0 -0.194844 -0.406366 0 -0.137226 -0.435577 0 
-0.100229 -0.405937 0 -0.114732 -0.437044 0 -0.145196 -0.411143 0 
-0.121822 -0.409363 0 -0.0938388 -0.433623 0 -0.0721939 -0.437453 0 
-0.0541222 -0.4124 0 -0.07731 -0.409647 0 -0.00949669 -0.410287 0 
-0.0047261 -0.43724 0 -0.0484482 -0.437243 0 -0.0267678 -0.43463 0 
-0.0318474 -0.406183 0 0.0179335 -0.436336 0 0.0408333 -0.437388 0 
0.0362268 -0.41096 0 0.0131682 -0.409693 0 0.0634583 -0.435317 0 
0.0822967 -0.407547 0 0.0858739 -0.439353 0 0.0604077 -0.410183 0 
0.13382 -0.413095 0 0.142606 -0.436321 0 0.118476 -0.439154 0 
0.113502 -0.402525 0 0.101936 -0.423812 0 0.156547 -0.407524 0 
0.187301 -0.436328 0 0.164712 -0.436377 0 0.178054 -0.410403 0 
0.210558 -0.438084 0 0.202659 -0.411952 0 0.226991 -0.415085 0 
0.235871 -0.438164 0 0.253876 -0.413048 0 0.281711 -0.412615 0 
0.283283 -0.437686 0 0.259971 -0.436521 0 0.33286 -0.437756 0 
0.308113 -0.438197 0 0.331291 -0.413913 0 0.305303 -0.414082 0 
0.359118 -0.415448 0 0.39086 -0.415988 0 0.382356 -0.437386 0 
0.357687 -0.438056 0 0.420389 -0.420876 0 0.409072 -0.439729 0 
0.438899 -0.440061 0 0.435521 -0.40564 0 0.455863 -0.426067 0 
0.490939 -0.428652 0 0.484527 -0.406017 0 0.473727 -0.441222 0 
0.462082 -0.403216 0 0.5125 -0.4125 0 0.5375 -0.4375 0 
0.5125 -0.4375 0 0.5375 -0.4125 0 -0.5375 -0.3625 0 
-0.5125 -0.3625 0 -0.5125 -0.3875 0 -0.5375 -0.3875 0 
-0.466045 -0.357362 0 -0.46722 -0.383775 0 -0.489596 -0.353115 0 
-0.489418 -0.380909 0 -0.420791 -0.36088 0 -0.44381 -0.355868 0 
-0.421404 -0.385585 0 -0.444487 -0.383687 0 -0.362617 -0.359682 0 
-0.393583 -0.362473 0 -0.397892 -0.386238 0 -0.373853 -0.382863 0 
-0.321018 -0.35329 0 -0.329198 -0.37534 0 -0.349793 -0.382822 0 
-0.307514 -0.384147 0 -0.297897 -0.351352 0 -0.287858 -0.372496 0 
-0.2608 -0.357965 0 -0.266877 -0.382948 0 -0.234735 -0.359814 0 
-0.2436 -0.383584 0 -0.219677 -0.385326 0 -0.202774 -0.372251 0 
-0.167002 -0.365086 0 -0.150998 -0.382292 0 -0.182558 -0.385352 0 
-0.188181 -0.352496 0 -0.135938 -0.358878 0 -0.111447 -0.356849 0 
-0.127602 -0.384409 0 -0.103421 -0.378933 0 -0.055882 -0.386715 0 
-0.080231 -0.383248 0 -0.0775835 -0.359295 0 -0.0543688 -0.360333 0 
-0.029029 -0.350682 0 -0.0335018 -0.377792 0 -0.0116264 -0.383122 0 
-0.00748501 -0.356039 0 0.0370273 -0.359129 0 0.014571 -0.354926 0 
0.0107915 -0.382582 0 0.0334766 -0.384243 0 0.0926008 -0.386504 0 
0.0576078 -0.35205 0 0.0564556 -0.385374 0 0.0736607 -0.372249 0 
0.144315 -0.384933 0 0.102067 -0.362918 0 0.126653 -0.354383 0 
0.148969 -0.357468 0 0.121862 -0.380075 0 0.199468 -0.364206 0 
0.166895 -0.378834 0 0.177464 -0.355248 0 0.188686 -0.387245 0 
0.224035 -0.364752 0 0.214588 -0.388553 0 0.238881 -0.392163 0 
0.251618 -0.372887 0 0.270438 -0.360022 0 0.288707 -0.380827 0 
0.269236 -0.392469 0 0.332384 -0.354165 0 0.342331 -0.393695 0 
0.299944 -0.360431 0 0.324352 -0.374504 0 0.310165 -0.392202 0 
0.372788 -0.397703 0 0.354691 -0.374513 0 0.361886 -0.354094 0 
0.381871 -0.377487 0 0.420952 -0.382461 0 0.40068 -0.366334 0 
0.447244 -0.382678 0 0.404278 -0.397498 0 0.432096 -0.359761 0 
0.489089 -0.382689 0 0.469005 -0.372906 0 0.489848 -0.354842 0 
0.453067 -0.352755 0 0.5375 -0.3625 0 0.5125 -0.3875 0 
0.5375 -0.3875 0 0.5125 -0.3625 0 -0.5125 -0.3125 0 
-0.5125 -0.3375 0 -0.5375 -0.3375 0 -0.5375 -0.3125 0 
-0.468969 -0.331938 0 -0.489706 -0.32346 0 -0.465751 -0.304358 0 
-0.423313 -0.30553 0 -0.404001 -0.339519 0 -0.426885 -0.33285 0 
-0.401232 -0.314641 0 -0.446913 -0.325501 0 -0.376947 -0.318059 0 
-0.353452 -0.323761 0 -0.377774 -0.341987 0 -0.344115 -0.347071 0 
-0.327924 -0.324888 0 -0.305358 -0.326776 0 -0.275505 -0.341268 0 
-0.261507 -0.315992 0 -0.283965 -0.316469 0 -0.200806 -0.327745 0 
-0.21548 -0.348539 0 -0.242978 -0.302807 0 -0.24595 -0.336034 0 
-0.225945 -0.323197 0 -0.167054 -0.309187 0 -0.15397 -0.343139 0 
-0.175068 -0.33164 0 -0.191719 -0.304551 0 -0.105498 -0.320832 0 
-0.125915 -0.333798 0 -0.143821 -0.318667 0 -0.118553 -0.302331 0 
-0.0838815 -0.309864 0 -0.0705162 -0.330469 0 -0.0931466 -0.342393 0 
-0.058224 -0.304934 0 -0.0181704 -0.326233 0 -0.0363153 -0.312505 0 
-0.00183096 -0.301657 0 -0.0486862 -0.335495 0 0.0272245 -0.330533 0 
0.0210512 -0.303133 0 0.00410295 -0.328226 0 0.0436434 -0.302458 0 
0.049671 -0.327923 0 0.0974857 -0.313392 0 0.0826378 -0.3468 0 
0.0741147 -0.324007 0 0.0672183 -0.300087 0 0.149302 -0.316769 0 
0.121302 -0.30566 0 0.105609 -0.335554 0 0.130108 -0.3302 0 
0.161558 -0.336973 0 0.184855 -0.326674 0 0.17134 -0.305493 0 
0.204665 -0.341107 0 0.205369 -0.311249 0 0.240967 -0.349209 0 
0.22437 -0.329879 0 0.239045 -0.310042 0 0.278983 -0.339523 0 
0.285267 -0.31764 0 0.26428 -0.305871 0 0.255184 -0.331064 0 
0.334868 -0.310533 0 0.339865 -0.334019 0 0.308127 -0.340545 0 
0.312587 -0.319327 0 0.364992 -0.306362 0 0.395952 -0.305278 0 
0.383791 -0.346391 0 0.363641 -0.327315 0 0.393035 -0.325249 0 
0.447204 -0.328299 0 0.412985 -0.345179 0 0.424057 -0.30488 0 
0.424428 -0.326393 0 0.489637 -0.323388 0 0.472881 -0.339551 0 
0.465114 -0.311399 0 0.5125 -0.3125 0 0.5125 -0.3375 0 
0.5375 -0.3125 0 0.5375 -0.3375 0 -0.5125 -0.2625 0 
-0.5375 -0.2875 0 -0.5125 -0.2875 0 -0.5375 -0.2625 0 
-0.455904 -0.266658 0 -0.490943 -0.260997 0 -0.474247 -0.278368 0 
-0.490118 -0.295672 0 -0.434121 -0.27262 0 -0.408368 -0.251947 0 
-0.413434 -0.2801 0 -0.444915 -0.295988 0 -0.393265 -0.290343 0 
-0.36508 -0.266536 0 -0.370384 -0.292244 0 -0.388383 -0.263853 0 
-0.348697 -0.298243 0 -0.319754 -0.273056 0 -0.342591 -0.271524 0 
-0.326053 -0.299411 0 -0.303811 -0.297777 0 -0.255488 -0.259745 0 
-0.281736 -0.289187 0 -0.261347 -0.283974 0 -0.27844 -0.256074 0 
-0.296935 -0.267618 0 -0.215257 -0.299975 0 -0.230991 -0.254984 0 
-0.209924 -0.273225 0 -0.234018 -0.280086 0 -0.164219 -0.284332 0 
-0.18772 -0.279783 0 -0.15909 -0.259555 0 -0.181825 -0.254138 0 
-0.11237 -0.278786 0 -0.116297 -0.253249 0 -0.14104 -0.29354 0 
-0.136414 -0.269037 0 -0.0906849 -0.287824 0 -0.0903886 -0.261152 0 
-0.0670922 -0.2814 0 -0.0636576 -0.257986 0 -0.0212491 -0.291077 0 
-0.0418517 -0.281848 0 -0.0379216 -0.25721 0 -0.0154058 -0.262749 0 
0.0264844 -0.277126 0 0.0347156 -0.253435 0 0.00376406 -0.27469 0 
0.073185 -0.269391 0 0.0513008 -0.276964 0 0.0885798 -0.290149 0 
0.0963372 -0.261601 0 0.111548 -0.282988 0 0.117755 -0.250405 0 
0.131876 -0.270414 0 0.143513 -0.292354 0 0.152581 -0.257655 0 
0.190165 -0.291608 0 0.183092 -0.263099 0 0.164668 -0.27959 0 
0.206083 -0.273228 0 0.222135 -0.2935 0 0.23338 -0.270273 0 
0.29452 -0.266333 0 0.28151 -0.287535 0 0.266955 -0.265307 0 
0.251646 -0.284635 0 0.341357 -0.290536 0 0.330317 -0.260036 0 
0.317704 -0.280186 0 0.303999 -0.297541 0 0.353964 -0.271138 0 
[...]
POINT_DATA 2798
SCALARS id float
LOOKUP_TABLE default
2621 2620 2601 2600 2640 2641 2642 2643 2645 
2647 2646 2644 2650 2651 2649 2648 2653 2655 
2652 2654 2657 2658 2656 2659 2662 2663 2660 
2661 2666 2664 2667 2665 2670 2671 2668 2669 
2675 2672 2674 2673 2676 2680 2677 2681 2678 
2679 2685 2682 2684 2683 2686 2689 2687 2688 
2692 2690 2691 2693 2695 2697 2696 2694 2698 
2699 2700 2701 2705 2702 2704 2703 2706 2707 
2708 2709 2711 2710 2712 2713 2714 2716 2715 
2717 2719 2720 2721 2718 2723 2743 2742 2722 
2603 2622 2602 2623 1661 1660 1678 1697 1696 
1750 1715 1714 1768 1732 1823 1822 1786 1877 
1840 1804 1858 1913 1949 1931 1876 1894 1912 
1930 1985 1967 1948 1966 2057 1984 2003 2020 
2129 2038 2093 2111 2056 2074 2165 2147 2183 
2128 2092 2110 2184 2146 2164 2219 2201 2182 
2255 2200 2237 2291 2254 2236 2273 2218 2310 
2290 2272 2329 2309 2328 2330 2308 2331 2347 
2326 2327 2348 2346 2349 2350 2365 2364 2344 
2345 2363 2362 2380 2383 2382 2384 2385 2381 
2367 2725 2744 2724 2745 2605 2625 2624 2604 
1716 1679 1698 1662 1806 1769 1787 1733 1842 
1824 1805 1841 1896 1895 1859 1914 1933 1932 
2005 1950 2022 1986 2004 2021 2039 2075 2002 
2058 2094 2131 2112 2130 2166 2148 2167 2185 
2222 2203 2202 2221 2257 2239 2220 2238 2274 
2276 2256 2275 2311 2293 2295 2296 2292 2315 
2312 2314 2313 2300 2332 2316 2317 2336 2334 
2333 2318 2351 2335 2353 2352 2366 2354 2284 
2369 2370 2372 2386 2368 2371 2387 2389 2388 
2390 2747 2726 2746 2727 2627 2626 2606 2607 
1734 1680 1752 1807 1825 1788 1844 1751 1862 
1861 1843 1860 1878 1915 1968 1987 1951 2059 
2040 2024 2023 2041 2096 2076 2077 2078 2150 
2113 2095 2132 2168 2186 2149 2205 2223 2206 
2224 2204 2258 2241 2240 2242 2259 2279 2294 
2277 2260 2281 2280 2278 2297 2298 2299 2264 
2282 2265 2283 2247 2125 2266 2142 21 2230 
1481 2195 2248 1875 60 1620 2337 1461 340 
2231 2267 0 2090 2355 2391 280 2729 2728 
2749 2748 2629 2608 2628 2609 1771 1663 1735 
1717 1789 1863 1826 1770 1881 1898 1880 1899 
1879 1953 1916 1897 1934 2006 1952 1969 1988 
1970 2060 2043 2061 2042 2097 2079 2098 2080 
2133 2116 2114 2115 2169 2151 2187 2188 2207 
2190 2189 2191 2225 2174 2208 2244 2243 2261 
2245 2262 2228 2263 2246 2211 2229 2054 2194 
2072 2212 1929 120 1441 1522 2018 100 1561 
1521 1362 1161 20 1460 1122 1101 1420 1281 
2213 2301 2373 1341 320 1221 2730 2750 2751 
2731 2630 2610 2611 2631 1790 1699 1753 1718 
1845 1772 1808 1882 1900 1917 1918 1901 1954 
1972 1971 1935 2007 2008 1989 2062 2025 2045 
2026 2044 2028 2063 2046 2081 2117 2064 2099 
2135 2170 2134 2082 2155 2173 2172 2152 2140 
2156 2139 2209 2123 2226 2192 2227 2158 2193 
2053 2175 2210 2124 2036 2159 2177 1893 2176 
2035 1821 1581 1911 1946 2107 1838 180 140 
1361 1 1803 1928 1541 1301 40 1201 1540 
1141 1181 1440 1321 1183 1400 2732 2752 2733 
2753 2613 2612 2632 2633 1664 1681 1700 1719 
1682 1827 1809 1754 1736 1846 1883 1919 1864 
1902 1937 1936 1955 1938 1974 1973 1956 1990 
2009 1991 2027 1992 2010 1977 1993 2029 2047 
1959 1905 2011 2012 2083 2030 2065 2100 2101 
2153 2171 2136 2120 2138 2137 2154 2119 2141 
2157 2089 2122 2105 2087 2071 2052 2070 2106 
2050 2088 2033 2000 2051 1839 2069 2017 1964 
2034 1857 1981 1731 1982 1910 1600 1963 1820 
160 1520 1241 1040 1261 1580 1766 1081 1121 
2734 2735 2754 2755 2635 2614 2615 2634 1665 
1701 1737 1683 1847 1865 1828 1791 1866 1885 
1884 1868 1867 1903 1920 1921 1939 1940 1957 
1976 1924 1975 1887 1923 1834 1817 1852 1958 
1871 1835 1781 1941 1995 1994 1798 1711 2048 
1960 1925 2013 1906 2014 2066 1944 2049 2121 
2084 2103 2118 2102 2086 2068 2104 2085 2032 
2067 80 2015 1999 1890 1785 1908 1856 1980 
1693 2016 1837 1998 462 1926 1892 1942 900 
1749 1802 1853 1560 1784 1729 1001 1713 1767 
1873 2757 2756 2736 2737 2616 2636 2617 2637 
1667 1702 1720 1666 1810 1755 1792 1773 1830 
1829 1811 1848 1793 1831 1812 1849 1813 1904 
1775 1869 1832 1886 1870 1922 1794 1850 1851 
1795 1727 1815 1779 1816 1780 1797 1689 2361 
1673 1745 1746 1674 1799 1691 1814 1708 1978 
1888 1100 2031 1943 1140 1996 1961 1997 1709 
1927 1962 1874 1945 1695 1889 1979 1180 1728 
820 1710 1676 2325 1909 762 1080 1120 1783 
2288 1891 542 1675 1712 1220 601 1819 1300 
1818 2759 2758 2739 2738 2565 2566 2567 2564 
2571 2570 2568 2569 2575 2572 2574 2573 2576 
2578 2577 2579 2580 2582 2583 2581 2585 2587 
2586 2584 2588 2591 2589 2590 2595 2593 2594 
2592 2598 2599 2597 2596 2618 2638 2619 2639 
1684 1668 1669 1774 1738 1685 2143 1703 1721 
1704 1757 1686 1756 1758 2356 2250 1722 1739 
2215 1670 1741 2374 1740 1777 2251 1776 1760 
1502 1723 1523 2234 2357 1283 1705 1742 1833 
1687 1778 1744 2375 2359 1796 2376 1726 1724 
2323 1762 2198 1725 2179 1671 1761 1707 2377 
2396 2235 2394 640 2343 1763 2270 1688 800 
1743 2253 2306 461 1672 2287 1020 2145 2019 
840 2199 2271 163 2341 1060 2037 2397 761 
1480 2741 2761 2740 2760 2765 2762 2763 2764 
2769 2766 2767 2768 2773 2771 2772 2770 2776 
2774 2775 2777 2780 2779 2781 2778 2782 2784 
2785 2783 2786 2788 2787 2789 2791 2790 2792 
2793 2794 2795 2796 2797 363 822 1320 541 
921 1340 1694 941 1102 1677 1062 701 1240 
981 1021 682 2285 423 1202 861 402 2178 
1401 641 2319 980 901 1601 801 1262 742 
1222 2160 404 2249 220 783 1000 2338 260 
2392 843 1061 1142 960 1282 240 781 2232 
2320 883 962 2214 1182 1381 903 1184 2302 
1421 1322 2303 1543 2126 922 1402 1947 1043 
1203 923 1342 1022 1023 1243 1162 1003 1759 
1621 2216 1382 1123 2252 2305 1303 1223 1582 
201 181 983 2358 2161 41 1542 161 1144 
2339 1185 2163 1483 2395 2196 1422 2393 2360 
2304 2233 2321 2108 2180 1544 2055 2197 1983 
2307 1602 1564 162 341 2109 1801 680 1706 
2289 660 2378 421 1855 520 1690 2342 2217 
1500 780 460 223 1836 1730 2091 482 1748 
1380 1765 720 881 561 1872 1200 1800 1764 
1907 263 1747 1041 862 560 1242 802 1854 
1260 1782 1692 1605 620 362 4 422 241 
123 302 1585 62 501 521 321 2181 600 
124 381 721 740 262 442 264 282 920 
85 401 361 242 621 722 224 222 283 
323 403 463 661 880 383 760 681 344 
343 382 364 703 245 940 304 284 305 
582 522 782 841 325 602 583 741 1082 
702 1002 683 563 961 662 622 723 942 
804 821 763 642 803 823 664 744 663 
1640 863 982 1204 1063 1044 1103 1083 625 
1163 1042 864 764 963 902 844 943 806 
884 786 825 785 766 1105 904 300 1064 
1024 1124 1004 984 1045 1143 1302 1263 964 
1145 200 1641 1106 1104 925 1562 1501 1264 
1224 1482 141 1363 1383 42 1463 143 1344 
81 61 360 2268 500 1404 2324 1443 1385 
1424 83 480 261 2269 22 2340 182 860 
3 2127 420 2322 1643 281 2286 104 1360 
63 2379 441 1280 1160 481 700 221 43 
101 540 122 1545 142 102 1584 2 1603 
1485 1465 1565 1504 1525 105 44 144 1505 
25 580 26 301 1624 64 1645 5 6 
45 1547 27 24 1567 184 183 203 244 
204 66 165 342 243 443 166 324 303 
205 322 225 147 186 185 365 206 285 
266 581 345 502 483 405 562 424 503 
366 444 385 543 326 386 643 623 464 
544 624 684 743 603 644 645 824 565 
882 604 704 842 584 585 605 665 546 
566 685 705 724 626 526 805 784 646 
725 765 845 745 746 885 787 924 905 
865 807 866 944 867 886 1084 1164 1025 
906 985 1065 965 1086 945 1442 1085 1125 
1244 1343 1225 2162 1087 1047 1563 1205 1503 
1126 1165 1423 1462 1366 1403 1323 1384 1304 
1364 23 1345 1227 1365 1524 2073 2001 1644 
82 400 121 1642 1604 84 1965 440 103 
380 1623 1444 1405 1247 1583 1386 1387 1406 
1306 1367 1425 1426 1347 1484 1445 1466 1427 
1486 1467 1446 1428 1546 1487 1625 1566 1506 
1526 1507 1586 1527 1606 1646 65 1626 1647 
1627 46 1607 86 202 47 7 164 67 
87 145 106 125 146 226 167 88 126 
127 265 187 286 207 227 246 384 208 
306 346 189 209 523 267 247 287 228 
327 288 484 307 504 425 328 406 485 
347 524 445 446 465 426 564 407 466 
525 427 505 486 545 487 506 547 507 
586 567 606 607 666 686 627 687 706 
647 826 707 747 726 688 767 668 727 
846 788 708 827 887 849 868 848 768 
847 1066 907 888 966 869 986 946 926 
1046 889 1005 947 1026 1186 948 987 1006 
967 1265 1027 1007 1088 1067 1226 1207 1107 
1284 1166 1206 1245 1285 1128 2144 1324 1187 
1622 1346 1266 1325 1267 1228 1305 1464 1286 
1209 1229 1189 1248 1210 1307 1268 1287 1326 
1308 1368 1327 1288 1407 1329 1348 1328 1408 
1349 1369 1388 1447 1409 1448 1429 1488 1468 
1469 1449 1509 1548 1489 1508 1528 1587 1529 
1588 1549 1568 1608 1589 1569 1628 8 1629 
1648 1609 28 48 9 1649 68 30 49 
29 107 148 69 108 188 129 128 168 
149 169 170 150 190 249 210 229 248 
289 269 268 329 290 308 309 349 310 
367 348 389 387 388 369 368 428 409 
447 408 449 448 467 468 527 488 508 
469 568 587 548 528 588 549 608 569 
648 628 667 609 589 669 630 649 650 
629 709 728 689 748 808 749 729 789 
828 769 830 829 809 850 870 890 908 
910 928 929 927 909 988 949 968 1089 
1146 1068 1028 1008 1048 1069 1108 1049 1127 
1109 1090 1129 1167 1147 1246 1110 1148 1168 
1208 1188 1169 1150 1190 1151 1170 1230 1211 
1249 1270 1289 1250 1269 1310 1309 1291 1330 
1290 1311 1332 1350 1331 1351 1389 1390 1371 
1370 1430 1411 1431 1410 1450 1470 1471 1451 
1510 1491 1490 1511 1551 1550 1570 1530 1531 
1590 1591 1571 1610 1611 1651 1631 1630 1650 
31 10 11 50 51 70 89 90 130 
110 109 151 131 111 132 191 172 152 
171 211 231 212 230 250 232 270 251 
271 330 311 292 291 370 331 350 371 
390 410 391 450 411 430 431 429 471 
489 490 470 511 491 529 510 509 570 
530 551 550 571 590 591 631 611 610 
651 691 671 670 690 710 711 730 731 
751 770 771 750 811 790 791 810 872 
831 852 871 851 891 912 892 911 950 
931 951 969 930 971 989 990 970 1009 
1029 1011 991 1010 1031 1030 1070 1050 1051 
1130 1071 1091 1092 1132 1112 1111 1131 1149 
1152 1171 1153 1172 1192 1231 1212 1233 1191 
1232 1251 1271 1272 1292 1293 1312 1313 1352 
1333 1353 1391 1372 1392 1373 1412 1432 1413 
1433 1472 1473 1452 1453 1493 1492 1512 1513 
1553 1533 1532 1552 1592 1573 1572 1613 1593 
1652 1612 1653 1632 1633 33 32 12 13 
53 52 72 71 73 93 112 92 91 
113 155 133 134 154 174 153 194 173 
213 214 192 193 233 253 252 234 272 
313 293 273 351 332 352 312 392 372 
393 373 413 412 432 452 472 451 473 
492 512 513 493 531 552 553 532 592 
573 572 593 612 632 633 613 692 653 
673 693 672 652 712 732 733 713 772 
753 773 752 812 793 792 813 833 832 
853 873 874 893 894 914 913 933 932 
953 973 972 952 993 992 1013 1012 1033 
1032 1052 1053 1093 1094 1072 1073 1114 1113 
1133 1134 1235 1214 1193 1173 1234 1213 1254 
1275 1255 1274 1273 1253 1252 1315 1314 1294 
1335 1355 1334 1375 1354 1395 1394 1374 1393 
1415 1414 1434 1435 1455 1474 1454 1495 1475 
1494 1515 1514 1535 1534 1554 1574 1575 1555 
1595 1614 1615 1594 1635 1634 1654 1655 55 
14 34 35 15 95 54 75 74 94 
156 114 115 176 135 196 175 215 195 
276 235 296 255 275 315 274 254 295 
334 375 354 314 294 395 353 374 333 
435 394 415 414 434 433 454 455 475 
495 453 474 514 494 515 534 533 555 
554 574 615 594 595 575 614 635 634 
655 674 675 695 654 694 735 715 714 
734 755 775 754 774 795 814 815 794 
835 834 854 855 916 896 895 875 935 
955 975 915 934 995 954 974 1015 1035 
994 1055 1014 1075 1034 1095 1136 1054 1074 
1175 1135 1115 1155 1194 1195 1174 1154 1256 
1417 1276 1457 1296 1437 1497 1477 1295 1336 
1316 1356 1517 1376 1537 1577 1396 1557 1416 
1436 1617 1456 1597 1496 1637 1476 1657 1536 
17 37 1516 1576 57 77 1556 1596 1616 
97 117 1636 137 1656 16 157 177 197 
36 56 217 76 237 96 277 116 297 
136 317 337 216 257 357 397 236 256 
417 336 437 377 376 356 316 457 497 
477 335 355 517 537 557 396 577 436 
597 416 637 476 617 456 516 677 657 
496 536 717 535 697 556 737 576 757 
596 797 616 777 817 837 656 636 676 
696 716 877 857 937 897 917 736 756 
796 957 977 776 997 1017 816 836 1037 
876 856 1057 936 956 1097 1077 996 976 
1117 1137 1016 1177 1036 1056 1197 1217 1076 
1237 1096 1157 1257 1116 1277 1156 1317 1176 
1297 1216 1196 1357 1337 1215 1377 1236 1397 
1319 1339 218 238 278 1359 258 1379 1399 
1419 318 298 338 378 1459 358 1439 398 
1499 1479 418 438 1539 458 1519 498 1579 
478 1559 1619 1599 518 538 578 1639 558 
1659 618 39 19 598 59 79 638 658 
119 678 99 738 139 159 718 698 199 
758 179 778 259 798 239 818 219 299 
838 858 279 878 339 898 319 379 938 
918 359 399 439 958 419 978 998 1038 
479 459 1018 1078 519 1058 499 579 1118 
559 539 1098 619 599 1138 1158 1198 659 
1178 639 1218 679 1258 699 1238 1278 1298 
719 739 1338 1318 779 759 819 1358 799 
1378 859 1398 839 1418 1438 879 899 1478 
1458 1518 919 1498 939 1538 1558 959 999 
1578 979 1019 1618 1598 1039 1638 1059 1079 
1658 1099 18 38 1119 1139 58 78 1179 
1159 1199 98 1219 138 118 158 1259 1239 
178 1279 1299 198 2401 2400 2398 2399 2404 
2402 2403 2405 2408 2407 2406 2409 2410 2413 
2411 2412 2415 2417 2416 2414 2418 2421 2420 
2419 2423 2422 2425 2426 2427 2424 2431 2428 
2430 2429 2432 2435 2434 2433 2439 2437 2436 
2438 2442 2440 2441 2443 2445 2444 2447 2446 
2448 2451 2450 2449 2453 2455 2452 2454 2457 
2458 2456 2459 2463 2461 2460 2462 2465 2467 
2466 2464 2469 2471 2468 2470 2473 2472 2474 
2475 2478 2477 2476 2479 2480 2481 2482 2483 
2484 2485 2489 2486 2488 2487 2493 2492 2490 
2491 2497 2496 2495 2494 2501 2499 2498 2500 
2502 2505 2503 2504 2509 2508 2507 2506 2511 
2512 2513 2510 2517 2515 2514 2516 2518 2519 
2521 2520 2524 2525 2522 2523 2527 2528 2529 
2526 2533 2532 2530 2531 2534 2535 2536 2537 
2538 2539 2540 2542 2541 2543 2544 2545 2546 
2547 2548 2549 2550 2551 2552 2554 2553 2555 
2558 2556 2557 2559 2560 2561 2562 2563 
FIELD FieldData 7
r 3 2798 float
-0.5125 -0.4625 0 -0.5125 -0.4875 0 -0.5375 -0.4625 0 
-0.5375 -0.4875 0 -0.487805 -0.4875 0 -0.487805 -0.4625 0 
-0.463415 -0.4875 0 -0.463415 -0.4625 0 -0.439024 -0.4625 0 
-0.414634 -0.4625 0 -0.414634 -0.4875 0 -0.439024 -0.4875 0 
-0.365854 -0.4875 0 -0.365854 -0.4625 0 -0.390244 -0.4625 0 
-0.390244 -0.4875 0 -0.341463 -0.4625 0 -0.317073 -0.4625 0 
-0.341463 -0.4875 0 -0.317073 -0.4875 0 -0.292683 -0.4625 0 
-0.268293 -0.4875 0 -0.292683 -0.4875 0 -0.268293 -0.4625 0 
-0.219512 -0.4875 0 -0.219512 -0.4625 0 -0.243902 -0.4875 0 
-0.243902 -0.4625 0 -0.170732 -0.4875 0 -0.195122 -0.4875 0 
-0.170732 -0.4625 0 -0.195122 -0.4625 0 -0.121951 -0.4875 0 
-0.121951 -0.4625 0 -0.146341 -0.4875 0 -0.146341 -0.4625 0 
-0.0731707 -0.4625 0 -0.097561 -0.4875 0 -0.0731707 -0.4875 0 
-0.097561 -0.4625 0 -0.0487805 -0.4875 0 -1.86265e-08 -0.4875 0 
-0.0487805 -0.4625 0 -1.86265e-08 -0.4625 0 -0.0243903 -0.4875 0 
-0.0243903 -0.4625 0 0.0487805 -0.4625 0 0.0243902 -0.4875 0 
0.0487805 -0.4875 0 0.0243902 -0.4625 0 0.0731707 -0.4875 0 
0.097561 -0.4625 0 0.0731707 -0.4625 0 0.097561 -0.4875 0 
0.146341 -0.4875 0 0.121951 -0.4875 0 0.121951 -0.4625 0 
0.146341 -0.4625 0 0.170732 -0.4625 0 0.195122 -0.4625 0 
0.195122 -0.4875 0 0.170732 -0.4875 0 0.219512 -0.4875 0 
0.219512 -0.4625 0 0.243902 -0.4875 0 0.243902 -0.4625 0 
0.292683 -0.4625 0 0.268293 -0.4875 0 0.292683 -0.4875 0 
0.268293 -0.4625 0 0.317073 -0.4875 0 0.317073 -0.4625 0 
0.341463 -0.4875 0 0.341463 -0.4625 0 0.365854 -0.4625 0 
0.365854 -0.4875 0 0.390244 -0.4875 0 0.390244 -0.4625 0 
0.414634 -0.4875 0 0.439024 -0.4875 0 0.414634 -0.4625 0 
0.439024 -0.4625 0 0.463415 -0.4625 0 0.487805 -0.4875 0 
0.487805 -0.4625 0 0.463415 -0.4875 0 0.5125 -0.4625 0 
0.5375 -0.4625 0 0.5375 -0.4875 0 0.5125 -0.4875 0 
-0.5375 -0.4125 0 -0.5125 -0.4375 0 -0.5375 -0.4375 0 
-0.5125 -0.4125 0 -0.489168 -0.408853 0 -0.488771 -0.436135 0 
-0.46589 -0.436618 0 -0.46649 -0.410184 0 -0.442757 -0.43656 0 
-0.419902 -0.411612 0 -0.443311 -0.410216 0 -0.419164 -0.437262 0 
-0.396129 -0.411721 0 -0.395174 -0.437401 0 -0.372862 -0.408905 0 
-0.350504 -0.409996 0 -0.372125 -0.435791 0 -0.32849 -0.404356 0 
-0.328528 -0.432541 0 -0.349443 -0.437691 0 -0.306928 -0.439 0 
-0.306338 -0.41145 0 -0.262927 -0.410921 0 -0.284903 -0.403056 0 
-0.285548 -0.432266 0 -0.264641 -0.437689 0 -0.241485 -0.436349 0 
-0.218939 -0.43595 0 -0.215969 -0.410878 0 -0.240216 -0.409567 0 
-0.196077 -0.438593 0 -0.178129 -0.426703 0 -0.166007 -0.404165 0 
-0.160214 -0.438858 0 -0.194844 -0.406366 0 -0.137226 -0.435577 0 
-0.100229 -0.405937 0 -0.114732 -0.437044 0 -0.145196 -0.411143 0 
-0.121822 -0.409363 0 -0.0938388 -0.433623 0 -0.0721939 -0.437453 0 
-0.0541222 -0.4124 0 -0.07731 -0.409647 0 -0.00949669 -0.410287 0 
-0.0047261 -0.43724 0 -0.0484482 -0.437243 0 -0.0267678 -0.43463 0 
-0.0318474 -0.406183 0 0.0179335 -0.436336 0 0.0408333 -0.437388 0 
0.0362268 -0.41096 0 0.0131682 -0.409693 0 0.0634583 -0.435317 0 
0.0822967 -0.407547 0 0.0858739 -0.439353 0 0.0604077 -0.410183 0 
0.13382 -0.413095 0 0.142606 -0.436321 0 0.118476 -0.439154 0 
0.113502 -0.402525 0 0.101936 -0.423812 0 0.156547 -0.407524 0 
0.187301 -0.436328 0 0.164712 -0.436377 0 0.178054 -0.410403 0 
0.210558 -0.438084 0 0.202659 -0.411952 0 0.226991 -0.415085 0 
0.235871 -0.438164 0 0.253876 -0.413048 0 0.281711 -0.412615 0 
0.283283 -0.437686 0 0.259971 -0.436521 0 0.33286 -0.437756 0 
0.308113 -0.438197 0 0.331291 -0.413913 0 0.305303 -0.414082 0 
0.359118 -0.415448 0 0.39086 -0.415988 0 0.382356 -0.437386 0 
0.357687 -0.438056 0 0.420389 -0.420876 0 0.409072 -0.439729 0 
0.438899 -0.440061 0 0.435521 -0.40564 0 0.455863 -0.426067 0 
0.490939 -0.428652 0 0.484527 -0.406017 0 0.473727 -0.441222 0 
0.462082 -0.403216 0 0.5125 -0.4125 0 0.5375 -0.4375 0 
0.5125 -0.4375 0 0.5375 -0.4125 0 -0.5375 -0.3625 0 
-0.5125 -0.3625 0 -0.5125 -0.3875 0 -0.5375 -0.3875 0 
-0.466045 -0.357362 0 -0.46722 -0.383775 0 -0.489596 -0.353115 0 
-0.489418 -0.380909 0 -0.420791 -0.36088 0 -0.44381 -0.355868 0 
-0.421404 -0.385585 0 -0.444487 -0.383687 0 -0.362617 -0.359682 0 
-0.393583 -0.362473 0 -0.397892 -0.386238 0 -0.373853 -0.382863 0 
-0.321018 -0.35329 0 -0.329198 -0.37534 0 -0.349793 -0.382822 0 
-0.307514 -0.384147 0 -0.297897 -0.351352 0 -0.287858 -0.372496 0 
-0.2608 -0.357965 0 -0.266877 -0.382948 0 -0.234735 -0.359814 0 
-0.2436 -0.383584 0 -0.219677 -0.385326 0 -0.202774 -0.372251 0 
-0.167002 -0.365086 0 -0.150998 -0.382292 0 -0.182558 -0.385352 0 
-0.188181 -0.352496 0 -0.135938 -0.358878 0 -0.111447 -0.356849 0 
-0.127602 -0.384409 0 -0.103421 -0.378933 0 -0.055882 -0.386715 0 
-0.080231 -0.383248 0 -0.0775835 -0.359295 0 -0.0543688 -0.360333 0 
-0.029029 -0.350682 0 -0.0335018 -0.377792 0 -0.0116264 -0.383122 0 
-0.00748501 -0.356039 0 0.0370273 -0.359129 0 0.014571 -0.354926 0 
0.0107915 -0.382582 0 0.0334766 -0.384243 0 0.0926008 -0.386504 0 
0.0576078 -0.35205 0 0.0564556 -0.385374 0 0.0736607 -0.372249 0 
0.144315 -0.384933 0 0.102067 -0.362918 0 0.126653 -0.354383 0 
0.148969 -0.357468 0 0.121862 -0.380075 0 0.199468 -0.364206 0 
0.166895 -0.378834 0 0.177464 -0.355248 0 0.188686 -0.387245 0 
0.224035 -0.364752 0 0.214588 -0.388553 0 0.238881 -0.392163 0 
0.251618 -0.372887 0 0.270438 -0.360022 0 0.288707 -0.380827 0 
0.269236 -0.392469 0 0.332384 -0.354165 0 0.342331 -0.393695 0 
0.299944 -0.360431 0 0.324352 -0.374504 0 0.310165 -0.392202 0 
0.372788 -0.397703 0 0.354691 -0.374513 0 0.361886 -0.354094 0 
0.381871 -0.377487 0 0.420952 -0.382461 0 0.40068 -0.366334 0 
0.447244 -0.382678 0 0.404278 -0.397498 0 0.432096 -0.359761 0 
0.489089 -0.382689 0 0.469005 -0.372906 0 0.489848 -0.354842 0 
0.453067 -0.352755 0 0.5375 -0.3625 0 0.5125 -0.3875 0 
0.5375 -0.3875 0 0.5125 -0.3625 0 -0.5125 -0.3125 0 
-0.5125 -0.3375 0 -0.5375 -0.3375 0 -0.5375 -0.3125 0 
-0.468969 -0.331938 0 -0.489706 -0.32346 0 -0.465751 -0.304358 0 
-0.423313 -0.30553 0 -0.404001 -0.339519 0 -0.426885 -0.33285 0 
-0.401232 -0.314641 0 -0.446913 -0.325501 0 -0.376947 -0.318059 0 
-0.353452 -0.323761 0 -0.377774 -0.341987 0 -0.344115 -0.347071 0 
-0.327924 -0.324888 0 -0.305358 -0.326776 0 -0.275505 -0.341268 0 
-0.261507 -0.315992 0 -0.283965 -0.316469 0 -0.200806 -0.327745 0 
-0.21548 -0.348539 0 -0.242978 -0.302807 0 -0.24595 -0.336034 0 
-0.225945 -0.323197 0 -0.167054 -0.309187 0 -0.15397 -0.343139 0 
-0.175068 -0.33164 0 -0.191719 -0.304551 0 -0.105498 -0.320832 0 
-0.125915 -0.333798 0 -0.143821 -0.318667 0 -0.118553 -0.302331 0 
-0.0838815 -0.309864 0 -0.0705162 -0.330469 0 -0.0931466 -0.342393 0 
-0.058224 -0.304934 0 -0.0181704 -0.326233 0 -0.0363153 -0.312505 0 
-0.00183096 -0.301657 0 -0.0486862 -0.335495 0 0.0272245 -0.330533 0 