# vtk DataFile Version 4.0
vtk output
ASCII
DATASET POLYDATA
FIELD FieldData 4
domain 1 3 string
domain_min:-20|-15
domain_max:20|15
cell_size:0.05

variables 1 2 string
dt:0.000372678
T:2.52549

constants 1 10 string
xsize:2
ysize:1
csize:0.05
dx:0.0238095
h:0.025
rho0:1000
mass:0.566894
g:1|0
c:13.4164
CFL:0.2

functions 1 8 string
time:T=(T+dt)
continuity:rho_dot=((-(rho*sph_D00(v,mass,rho,Wp52220)))+(((0.1*c)*h)*sph_L00(rho,mass,rho,Wp52220)))
irho:rho=(rho+int1((rho_dot,dt))
EOS:p=(((c^2)*(rho-rho0))+10000)
euler:a=if((gid,(0*v),(((-((1/rho)*sph_G11(p,mass,rho,Wp52220)))+(0.01*sph_L00(v,mass,rho,Wp52220)))+g))
vel:v=(v+int1((a,dt))
pos:r=(r+int1((v,dt))
new_dt:dt=(CFL*min((sqrt(((h/fmax(magnitude((a)))),(h/c)))

POINTS 2798 float
-0.5375 -0.4625 0 -0.5125 -0.4875 0 -0.5125 -0.4625 0 
-0.5375 -0.4875 0 -0.487805 -0.4875 0 -0.463415 -0.4875 0 
-0.463415 -0.4625 0 -0.487805 -0.4625 0 -0.439024 -0.4625 0 
-0.414634 -0.4625 0 -0.414634 -0.4875 0 -0.439024 -0.4875 0 
-0.365854 -0.4625 0 -0.390244 -0.4875 0 -0.365854 -0.4875 0 
-0.390244 -0.4625 0 -0.317073 -0.4875 0 -0.341463 -0.4625 0 
-0.317073 -0.4625 0 -0.341463 -0.4875 0 -0.268293 -0.4625 0 
-0.292683 -0.4625 0 -0.292683 -0.4875 0 -0.268293 -0.4875 0 
-0.243902 -0.4625 0 -0.219512 -0.4625 0 -0.219512 -0.4875 0 
-0.243902 -0.4875 0 -0.195122 -0.4875 0 -0.170732 -0.4875 0 
-0.195122 -0.4625 0 -0.170732 -0.4625 0 -0.121951 -0.4875 0 
-0.146341 -0.4625 0 -0.121951 -0.4625 0 -0.146341 -0.4875 0 
-0.0731707 -0.4875 0 -0.097561 -0.4625 0 -0.097561 -0.4875 0 
-0.0731707 -0.4625 0 -0.0487805 -0.4625 0 -0.0243903 -0.4625 0 
-0.0243903 -0.4875 0 -1.86265e-08 -0.4875 0 -0.0487805 -0.4875 0 
-1.86265e-08 -0.4625 0 0.0243902 -0.4875 0 0.0243902 -0.4625 0 
0.0487805 -0.4625 0 0.0487805 -0.4875 0 0.097561 -0.4875 0 
0.097561 -0.4625 0 0.0731707 -0.4625 0 0.0731707 -0.4875 0 
0.146341 -0.4625 0 0.121951 -0.4625 0 0.121951 -0.4875 0 
0.146341 -0.4875 0 0.170732 -0.4625 0 0.170732 -0.4875 0 
0.195122 -0.4875 0 0.195122 -0.4625 0 0.243902 -0.4875 0 
0.243902 -0.4625 0 0.219512 -0.4625 0 0.219512 -0.4875 0 
0.292683 -0.4875 0 0.292683 -0.4625 0 0.268293 -0.4625 0 
0.268293 -0.4875 0 0.317073 -0.4625 0 0.317073 -0.4875 0 
0.341463 -0.4875 0 0.341463 -0.4625 0 0.390244 -0.4875 0 
0.365854 -0.4625 0 0.390244 -0.4625 0 0.365854 -0.4875 0 
0.414634 -0.4625 0 0.439024 -0.4625 0 0.414634 -0.4875 0 
0.439024 -0.4875 0 0.463415 -0.4625 0 0.487805 -0.4875 0 
0.487805 -0.4625 0 0.463415 -0.4875 0 0.5375 -0.4875 0 
0.5375 -0.4625 0 0.5125 -0.4625 0 0.5125 -0.4875 0 
-0.5125 -0.4375 0 -0.5125 -0.4125 0 -0.5375 -0.4125 0 
-0.5375 -0.4375 0 -0.466335 -0.439097 0 -0.491547 -0.400757 0 
-0.472495 -0.415482 0 -0.490701 -0.434371 0 -0.420986 -0.439703 0 
-0.408294 -0.419374 0 -0.444454 -0.434012 0 -0.436128 -0.41252 0 
-0.393018 -0.437565 0 -0.374593 -0.410984 0 -0.370537 -0.43606 0 
-0.39397 -0.40044 0 -0.351191 -0.411222 0 -0.306336 -0.408384 0 
-0.323902 -0.436732 0 -0.347116 -0.437382 0 -0.301585 -0.436003 0 
-0.328188 -0.41053 0 -0.283058 -0.412432 0 -0.255944 -0.434566 0 
-0.260334 -0.407647 0 -0.278226 -0.437927 0 -0.212136 -0.436134 0 
-0.216213 -0.41163 0 -0.238455 -0.407323 0 -0.234978 -0.436751 0 
-0.161856 -0.400129 0 -0.178988 -0.415477 0 -0.19064 -0.435751 0 
-0.165334 -0.43969 0 -0.148433 -0.426305 0 -0.137968 -0.404133 0 
-0.116486 -0.411057 0 -0.107286 -0.435081 0 -0.130134 -0.439021 0 
-0.0938571 -0.407052 0 -0.0628863 -0.43761 0 -0.0857933 -0.43618 0 
-0.0504387 -0.406216 0 -0.072042 -0.411224 0 -0.0209112 -0.437978 0 
-0.00452857 -0.414221 0 -0.0420465 -0.433153 0 -0.0273566 -0.408832 0 
0.0243374 -0.432925 0 0.0459379 -0.43823 0 0.00360526 -0.437697 0 
0.0266705 -0.408076 0 0.049901 -0.410972 0 0.0682717 -0.435185 0 
0.0713539 -0.406479 0 0.0897321 -0.436678 0 0.0926415 -0.409872 0 
0.112693 -0.43718 0 0.138737 -0.412294 0 0.115187 -0.411206 0 
0.136132 -0.437525 0 0.161875 -0.412041 0 0.185659 -0.4091 0 
0.160102 -0.437976 0 0.18271 -0.435545 0 0.20919 -0.41444 0 
0.232014 -0.439154 0 0.205918 -0.438421 0 0.233845 -0.415413 0 
0.252675 -0.404969 0 0.281765 -0.439199 0 0.256202 -0.436692 0 
0.27335 -0.416274 0 0.298751 -0.415375 0 0.324397 -0.420233 0 
0.33866 -0.401993 0 0.338494 -0.439813 0 0.308514 -0.439552 0 
0.385042 -0.420321 0 0.396758 -0.439408 0 0.367464 -0.439929 0 
0.355417 -0.419848 0 0.445876 -0.421821 0 0.425938 -0.441123 0 
0.418978 -0.420218 0 0.404144 -0.404067 0 0.488242 -0.439546 0 
0.492424 -0.401678 0 0.45766 -0.440525 0 0.478011 -0.421899 0 
0.46323 -0.403525 0 0.5375 -0.4125 0 0.5125 -0.4125 0 
0.5125 -0.4375 0 0.5375 -0.4375 0 -0.5375 -0.3625 0 
-0.5125 -0.3625 0 -0.5125 -0.3875 0 -0.5375 -0.3875 0 
-0.457103 -0.399251 0 -0.478668 -0.3814 0 -0.460459 -0.364937 0 
-0.490187 -0.361388 0 -0.438432 -0.351148 0 -0.419821 -0.394639 0 
-0.442348 -0.381033 0 -0.420351 -0.367564 0 -0.354771 -0.385763 0 
-0.375362 -0.379581 0 -0.355804 -0.356826 0 -0.398035 -0.3743 0 
-0.376199 -0.35067 0 -0.333629 -0.357774 0 -0.310067 -0.38024 0 
-0.331821 -0.383942 0 -0.313073 -0.350261 0 -0.269959 -0.354759 0 
-0.287101 -0.386849 0 -0.291533 -0.360291 0 -0.264724 -0.38114 0 
-0.242367 -0.379482 0 -0.204326 -0.367134 0 -0.220559 -0.382744 0 
-0.226048 -0.352211 0 -0.247316 -0.352557 0 -0.182146 -0.382577 0 
-0.18571 -0.35368 0 -0.197947 -0.399668 0 -0.162576 -0.370249 0 
-0.120741 -0.357857 0 -0.116654 -0.383294 0 -0.140912 -0.378733 0 
-0.143802 -0.350628 0 -0.0965003 -0.356737 0 -0.0722251 -0.358261 0 
-0.0929716 -0.381974 0 -0.0689357 -0.383428 0 -0.0235748 -0.357203 0 
-0.04722 -0.355488 0 -0.0450339 -0.380109 0 -0.0213005 -0.385259 0 
-0.00172996 -0.371454 0 0.0241654 -0.375059 0 0.0437254 -0.384857 0 
0.0300562 -0.350732 0 0.00743081 -0.395389 0 0.052526 -0.35572 0 
0.0654341 -0.378991 0 0.0872074 -0.380318 0 0.0982845 -0.35479 0 
0.0759395 -0.351399 0 0.121545 -0.361031 0 0.108577 -0.38453 0 
0.13206 -0.38676 0 0.14674 -0.362492 0 0.156037 -0.386362 0 
0.1996 -0.37233 0 0.172447 -0.360968 0 0.180136 -0.385691 0 
0.234481 -0.38494 0 0.228226 -0.363031 0 0.212221 -0.391765 0 
0.25838 -0.379158 0 0.289371 -0.372369 0 0.280172 -0.392249 0 
0.259439 -0.357337 0 0.308609 -0.39463 0 0.34933 -0.359894 0 
0.310943 -0.363794 0 0.328227 -0.380217 0 0.377444 -0.365586 0 
0.355584 -0.381732 0 0.370542 -0.399927 0 0.390114 -0.384927 0 
0.434035 -0.363276 0 0.434918 -0.398361 0 0.417622 -0.381233 0 
0.404211 -0.360677 0 0.45186 -0.380897 0 0.478871 -0.38229 0 
0.462025 -0.358794 0 0.489731 -0.363683 0 0.5125 -0.3625 0 
0.5375 -0.3875 0 0.5375 -0.3625 0 0.5125 -0.3875 0 
-0.5125 -0.3375 0 -0.5125 -0.3125 0 -0.5375 -0.3125 0 
-0.5375 -0.3375 0 -0.488998 -0.333565 0 -0.466679 -0.312911 0 
-0.488427 -0.306791 0 -0.467861 -0.342148 0 -0.407489 -0.315093 0 
-0.432195 -0.308763 0 -0.446459 -0.327556 0 -0.418874 -0.336338 0 
-0.398768 -0.347906 0 -0.38514 -0.323539 0 -0.362277 -0.324704 0 
-0.30378 -0.304863 0 -0.342018 -0.331173 0 -0.32162 -0.322947 0 
-0.251824 -0.32578 0 -0.274668 -0.328953 0 -0.279325 -0.303195 0 
-0.296827 -0.331065 0 -0.211615 -0.307432 0 -0.208984 -0.33665 0 
-0.230752 -0.321849 0 -0.1664 -0.341174 0 -0.189397 -0.325403 0 
-0.170134 -0.310951 0 -0.126596 -0.330632 0 -0.102053 -0.308481 0 
-0.126759 -0.304738 0 -0.102763 -0.332816 0 -0.149522 -0.321513 0 
-0.05408 -0.332886 0 -0.0772057 -0.308117 0 -0.0541893 -0.303092 0 
-0.0775592 -0.332386 0 -0.0209069 -0.334682 0 -0.0351419 -0.31797 0 
-0.00553006 -0.302669 0 0.00553922 -0.348754 0 0.0254281 -0.324616 0 
0.00101517 -0.324128 0 0.049125 -0.328524 0 0.025383 -0.301655 0 
0.0727176 -0.327697 0 0.0904192 -0.312279 0 0.0536398 -0.305027 0 
0.103635 -0.331482 0 0.124874 -0.314447 0 0.129196 -0.337936 0 
0.184207 -0.340878 0 0.155056 -0.339314 0 0.151897 -0.316262 0 
0.177687 -0.318958 0 0.205809 -0.349865 0 0.242175 -0.314349 0 
0.201416 -0.314447 0 0.239756 -0.342577 0 0.224065 -0.300649 0 
0.218612 -0.329793 0 0.261816 -0.328788 0 0.281794 -0.349112 0 
0.282614 -0.320377 0 0.343238 -0.305648 0 0.307693 -0.311005 0 
0.327891 -0.348045 0 0.302767 -0.337295 0 0.328087 -0.323275 0 
0.366289 -0.316014 0 0.391403 -0.326585 0 0.352713 -0.335479 0 
0.377375 -0.3443 0 0.402296 -0.306949 0 0.435751 -0.340959 0 
0.449326 -0.315631 0 0.425226 -0.315311 0 0.411619 -0.339581 0 
0.471845 -0.305191 0 0.461805 -0.335324 0 0.489803 -0.317099 0 
0.485762 -0.340335 0 0.5375 -0.3125 0 0.5125 -0.3125 0 
0.5375 -0.3375 0 0.5125 -0.3375 0 -0.5125 -0.2875 0 
-0.5125 -0.2625 0 -0.5375 -0.2875 0 -0.5375 -0.2625 0 
-0.464768 -0.272843 0 -0.454884 -0.293214 0 -0.489333 -0.257101 0 
-0.48708 -0.282916 0 -0.402592 -0.292026 0 -0.405841 -0.267658 0 
-0.439608 -0.264932 0 -0.428119 -0.284893 0 -0.378026 -0.297901 0 
-0.380548 -0.272274 0 -0.354548 -0.298909 0 -0.357765 -0.271352 0 
-0.316514 -0.254852 0 -0.332855 -0.299726 0 -0.336114 -0.271039 0 
-0.31353 -0.281924 0 -0.26286 -0.275125 0 -0.255858 -0.299527 0 
-0.267712 -0.251278 0 -0.292355 -0.256631 0 -0.287935 -0.279673 0 
-0.238906 -0.268251 0 -0.211231 -0.2797 0 -0.233633 -0.292926 0 
-0.215912 -0.256171 0 -0.164801 -0.255517 0 -0.187466 -0.268631 0 
-0.190339 -0.295938 0 -0.166727 -0.283235 0 -0.109927 -0.25367 0 
-0.14655 -0.292828 0 -0.12525 -0.275304 0 -0.144261 -0.262798 0 
-0.104747 -0.284421 0 -0.0547777 -0.279169 0 -0.0798095 -0.282851 0 
-0.0874729 -0.260884 0 -0.0587363 -0.256906 0 -0.0263055 -0.294466 0 
-0.00555067 -0.267942 0 -0.0306165 -0.272173 0 0.00967683 -0.28313 0 
0.0270324 -0.264286 0 0.0422649 -0.282917 0 0.050491 -0.251851 0 
0.0950073 -0.278531 0 0.0841459 -0.256704 0 0.0643891 -0.27158 0 
0.0747068 -0.294225 0 0.110463 -0.296228 0 0.143106 -0.294414 0 
0.113404 -0.258744 0 0.144169 -0.256414 0 0.127456 -0.276796 0 
0.198174 -0.28957 0 0.185661 -0.269015 0 0.172958 -0.295761 0 
0.159919 -0.275584 0 0.221794 -0.276474 0 0.208079 -0.257692 0 
0.239457 -0.255171 0 0.246368 -0.281854 0 0.285483 -0.295185 0 
0.264263 -0.265568 0 0.261999 -0.298479 0 0.286118 -0.272653 0 
0.333021 -0.261318 0 0.309535 -0.266866 0 0.314625 -0.290096 0 
[...]
POINT_DATA 2798
SCALARS id float
LOOKUP_TABLE default
2601 2620 2621 2600 2640 2642 2643 2641 2645 
2647 2646 2644 2651 2648 2650 2649 2654 2653 
2655 2652 2659 2657 2656 2658 2661 2663 2662 
2660 2664 2666 2665 2667 2670 2669 2671 2668 
2674 2673 2672 2675 2677 2679 2678 2680 2676 
2681 2682 2683 2685 2684 2688 2689 2687 2686 
2693 2691 2690 2692 2695 2694 2696 2697 2700 
2701 2699 2698 2704 2705 2703 2702 2707 2706 
2708 2709 2712 2711 2713 2710 2715 2717 2714 
2716 2719 2720 2721 2718 2742 2743 2723 2722 
2622 2623 2603 2602 1678 1697 1714 1660 1786 
1804 1732 1840 1858 1967 1876 1949 1912 2129 
1930 1894 1984 1948 2147 2038 2165 2020 2074 
2201 2183 2056 2218 2237 2092 2110 2128 2291 
2310 2164 2146 2329 2200 2182 2330 2328 2254 
2347 2236 2331 2290 2309 2272 2349 2365 2308 
2366 2327 2364 2326 2372 2368 2346 2363 2370 
2348 2345 2383 2362 2344 2371 2090 2386 2380 
2390 2231 2391 1341 2367 2382 2373 2389 2381 
280 2387 2388 2301 1183 2384 320 2385 2355 
1321 2745 2725 2724 2744 2605 2625 2624 2604 
1823 1696 1768 1661 1841 1913 1822 1877 2093 
1966 2057 1931 1985 2112 2130 2111 2131 2203 
2148 2167 2166 2184 2256 2220 2238 2202 2255 
2274 2219 2273 2300 2313 2311 2315 2283 2317 
2332 2316 2335 2336 2333 2334 2352 2351 2354 
2318 2350 2284 2369 2337 1460 1461 1181 1620 
1122 1201 340 1141 1281 0 1101 1520 2267 
1420 1400 2213 1766 1221 1713 1784 1440 1891 
1729 1121 1001 1818 1081 1712 1675 1873 1767 
1819 1300 2727 2746 2747 2726 2626 2627 2607 
2606 1715 1787 1679 1750 1895 1842 1805 1859 
1914 1986 2003 2186 2075 2149 2239 2221 2222 
2185 2293 2275 2257 2312 2292 2314 2247 2212 
2265 2125 2282 2266 2018 21 2230 2248 2142 
1362 2353 2195 1875 60 1481 20 1161 100 
1541 1820 1261 1241 1540 1580 1802 1040 762 
1942 1749 1979 900 1120 1853 820 80 1785 
1560 1909 1962 1709 1997 1180 542 1961 1080 
1927 2325 1783 1676 1945 2145 1220 2749 2729 
2748 2728 2628 2629 2608 2609 1806 1824 1662 
1733 1950 1932 1843 1860 2004 2022 2002 2021 
2076 2094 2039 2113 2240 2258 2223 2150 2204 
2259 2294 2276 2277 2297 2278 2295 2296 2263 
2299 2281 2298 2264 1929 2229 2194 2054 1441 
120 1522 1521 1361 1561 180 1600 1 40 
1301 1928 160 1731 1963 1910 1693 462 1892 
1837 2016 2034 2033 1856 1908 2051 1874 2102 
2069 2032 1890 1999 2086 1100 1746 1814 1283 
2067 1889 1762 2031 2306 1140 1674 2288 2731 
2730 2750 2751 2610 2631 2611 2630 1716 1698 
1769 1734 1862 1878 1861 1896 1825 2040 2041 
2023 2005 1933 2059 2096 2095 2058 2077 2224 
2168 2132 2242 2225 2208 2241 2260 2261 2243 
2279 2244 2280 2246 2262 2245 2226 2209 2228 
2211 1581 2124 1893 2072 1821 1838 1946 140 
2107 2070 1803 1982 1998 1857 1839 2017 1926 
1980 1981 1964 2050 2000 2088 2015 2084 1708 
2049 1978 1906 2234 1745 1799 2303 1673 2357 
2320 1888 2232 2251 1282 1996 1710 1760 2752 
2733 2732 2753 2632 2613 2633 2612 1680 1751 
1788 1844 1915 1879 1968 1987 2024 1969 1951 
2060 2078 2079 2097 2098 2206 2169 2114 2207 
2191 2205 2115 2189 2190 2188 2156 2173 2172 
2174 2140 2155 2139 1941 2136 2100 2171 2123 
2227 2065 2158 2193 2177 2210 2192 1911 2159 
2035 2176 2154 2087 2036 2089 2141 2053 2052 
2068 2105 2106 2122 2071 2103 2085 2118 2014 
2104 1723 2013 1797 1795 1944 1740 1779 1742 
1142 1815 2356 2250 404 1695 1061 2323 240 
2735 2734 2754 2755 2615 2634 2614 2635 1752 
1717 1663 1770 1735 1881 1826 1880 1807 2042 
1952 1897 1934 2061 2043 2006 1988 2062 2063 
2081 2045 2080 2133 2099 2028 2010 2027 2064 
2046 2116 2187 2029 1977 1993 2151 2152 2117 
2170 2047 2134 2082 1959 2135 1835 2012 2153 
2101 2175 2120 2157 2138 1870 1816 2137 2083 
2119 1871 1794 2121 1689 1705 2048 1711 2066 
1960 1925 1995 1777 1780 1722 2215 1798 1727 
1775 1776 1741 1757 1670 1850 1686 2374 783 
2143 2756 2736 2757 2737 2637 2636 2617 2616 
1753 1771 1789 1699 1899 1917 1898 1935 1953 
1989 1954 1971 1916 2007 1970 2008 2025 2026 
1955 1827 1973 2044 1920 1991 1992 1885 1956 
2009 1701 1974 1924 1320 1829 1957 1903 1939 
1958 1905 1975 1868 1867 1849 1817 1847 1887 
1921 1831 2030 1904 2011 1922 1940 1852 1773 
1923 1667 1702 1811 1684 1758 1781 1813 1830 
1793 1869 1851 2160 1994 1703 1755 1669 1812 
1739 1834 1854 861 1685 1021 1886 980 2377 
260 682 2759 2758 2738 2739 2567 2565 2564 
2566 2571 2570 2569 2568 2575 2574 2572 2573 
2579 2576 2577 2578 2582 2583 2581 2580 2585 
2584 2586 2587 2591 2589 2590 2588 2594 2593 
2595 2592 2597 2599 2596 2598 2619 2639 2618 
2638 1790 1681 1808 1718 1700 1863 2199 1882 
1900 1918 1990 1972 1936 1919 1480 1937 2037 
1883 1809 1938 1846 1902 1845 1500 1737 1665 
1719 1664 780 1736 1682 1263 2307 1380 720 
1884 1976 220 1683 1828 1866 1754 1041 2342 
1242 840 1792 1848 482 1601 1200 1810 1102 
1692 1260 1564 822 1706 541 1062 1782 862 
460 223 1983 263 141 200 881 561 1401 
1668 1677 1907 2338 1721 1262 2741 2740 2760 
2761 2763 2765 2762 2764 2766 2768 2767 2769 
2772 2773 2770 2771 2777 2775 2776 2774 2780 
2778 2779 2781 2785 2782 2783 2784 2787 2789 
2786 2788 2793 2792 2791 2790 2796 2794 2797 
2795 2214 302 1726 1605 441 521 1543 381 
2361 2397 422 241 401 2376 2359 681 343 
1943 1725 361 403 382 1022 800 1728 1671 
2396 1778 1763 883 1744 601 1184 1947 2394 
1759 461 1743 640 903 1043 1688 1672 2252 
2019 1023 2287 962 2343 803 1582 1901 1303 
41 2358 181 2341 163 761 1003 1761 1044 
1382 2302 763 1730 2179 1864 823 2378 1690 
806 520 983 2304 201 2339 2270 744 1765 
1063 1772 1836 2321 2180 1865 1747 884 2253 
625 341 2217 1801 2395 162 2233 1800 680 
421 982 1105 1791 1144 1422 1544 2197 2091 
1666 1720 1748 1738 802 2109 1045 1145 1064 
1004 1383 845 1302 1385 1124 2285 1704 921 
1222 941 261 420 1832 2392 981 860 2181 
901 1643 2269 1756 1774 701 2319 940 843 
920 123 1240 3 1202 1364 641 264 620 
742 321 463 1403 2178 442 423 124 1000 
101 600 2249 1691 1160 501 104 1423 481 
43 1424 2379 1280 122 1360 2322 986 84 
1604 1227 121 1304 721 1525 1365 380 103 
4 23 1965 1585 262 102 1182 440 105 
1207 801 621 1642 1523 740 62 2126 1485 
282 1796 2198 1504 224 1623 242 1502 1342 
301 760 703 2375 323 1833 1402 222 1621 
304 1707 661 781 1322 2271 1542 961 1724 
1421 741 1020 841 723 804 1243 1855 1223 
923 342 582 1123 602 2305 1162 284 702 
2360 643 622 444 821 161 963 563 1185 
583 2235 503 366 2161 2393 844 2055 2163 
902 502 623 1103 864 1042 543 984 2289 
1083 943 904 2108 464 1060 1483 764 743 
2196 1641 300 605 964 665 766 724 660 
1872 705 360 1264 1602 81 22 61 1764 
2340 480 281 1501 2268 363 1694 402 1224 
83 1344 42 500 362 1404 221 143 1086 
1066 1443 1225 540 700 182 1340 1463 1025 
560 2127 666 985 945 2162 907 1087 1125 
1085 1343 868 1384 1345 847 827 849 1503 
2286 1046 848 2001 1186 728 688 967 1462 
63 400 1323 1265 1524 1006 987 1007 1325 
1126 1067 1005 722 1088 1644 1286 1603 927 
1622 1565 1187 1505 144 2 6 1266 85 
44 1405 1425 1406 283 1583 5 1267 960 
580 27 922 383 184 1687 1645 25 26 
1381 880 203 364 782 1547 245 64 522 
305 324 325 1082 2216 86 1203 243 322 
285 165 66 1204 662 225 1002 65 942 
166 186 683 1647 365 483 147 562 581 
642 164 385 405 286 345 1163 663 684 
664 863 1640 544 882 786 523 566 825 
603 247 307 704 624 484 1143 1024 842 
824 805 584 327 604 626 485 745 1363 
746 506 785 347 546 1106 2324 725 646 
545 905 924 765 547 687 685 1065 1164 
1482 1563 466 1104 487 925 686 866 527 
507 1562 606 1442 944 887 1244 865 965 
1084 906 886 867 788 747 767 846 727 
648 668 707 628 589 748 590 1047 689 
966 1165 1366 947 926 946 888 1205 829 
948 1026 828 908 1226 1346 850 2144 82 
2073 1128 1285 1545 1324 1127 1584 1284 1246 
1464 142 1305 1167 1228 1208 1148 1465 1247 
1466 1110 1090 1444 1426 1484 1387 1624 1367 
24 1446 1486 1386 45 1567 344 1546 1445 
1368 183 1487 244 443 1506 1586 1448 1428 
1527 204 1468 1566 1447 1388 1526 46 1408 
1646 1409 202 303 1587 1627 205 1607 47 
185 1528 7 266 146 206 125 126 145 
424 226 306 187 167 384 326 386 287 
246 265 227 228 208 346 207 209 229 
108 168 565 564 149 189 188 267 504 
644 645 585 524 248 784 425 526 446 
486 505 308 426 525 787 586 465 329 
407 445 290 348 427 367 387 467 488 
448 468 447 706 885 567 826 647 627 
807 587 607 549 508 568 489 726 588 
510 608 528 529 570 667 569 550 629 
708 709 669 670 869 768 729 808 690 
749 928 769 889 1206 870 1027 890 909 
968 851 1146 1245 891 1107 1069 1068 1008 
1166 1109 1048 1049 1108 1089 1147 1029 1009 
1010 1050 1188 1030 1209 1149 1129 1347 1306 
1130 1070 1229 1091 1168 1326 1111 1307 1287 
1189 1625 1268 1407 1248 1427 1288 1467 1348 
1327 1328 1308 1309 1290 1310 1488 1349 1329 
1429 1606 1507 1369 1626 1588 1449 1508 1548 
1608 1529 67 1568 1628 87 1648 1569 1609 
28 8 1589 106 88 1649 1629 127 48 
148 107 68 49 9 89 30 69 29 
70 50 128 129 109 268 249 169 130 
288 170 406 210 191 328 289 190 269 
250 270 309 232 231 212 233 251 310 
271 349 369 368 408 388 409 428 389 
449 469 429 390 410 470 411 450 430 
509 548 451 471 490 530 491 511 610 
609 551 512 649 592 591 630 611 650 
631 671 691 710 672 651 731 730 809 
789 711 790 771 770 750 830 811 810 
791 910 871 892 988 831 930 1028 989 
969 949 990 970 931 951 971 991 950 
1011 1031 992 1012 1051 1071 1032 1052 1131 
1112 1092 1093 1150 1169 1151 1132 1190 1230 
1170 1210 1249 1231 1269 1289 1211 1232 1250 
1270 1330 1291 1311 1292 1350 1370 1469 1389 
1331 1470 1509 1430 1489 1549 1510 1450 1490 
1491 1530 1471 1550 1570 1511 1531 1551 1590 
1571 1572 1610 1591 1611 1630 1631 1592 1632 
1651 1650 10 51 11 31 90 110 71 
91 150 133 151 111 131 152 171 153 
132 172 230 173 211 193 214 213 272 
252 253 234 254 292 291 330 332 331 
370 350 311 371 351 372 352 413 391 
412 431 392 433 432 452 494 492 472 
473 493 531 571 553 552 532 572 573 
593 594 613 612 614 632 693 674 653 
673 652 633 733 692 713 712 732 753 
751 752 793 773 772 792 812 852 911 
873 929 874 872 913 914 912 933 893 
973 952 953 932 972 993 1034 1013 1033 
1054 1053 1074 1073 1094 1113 1072 1133 1153 
1152 1134 1191 1192 1172 1171 1212 1213 1252 
1233 1274 1251 1253 1271 1272 1313 1293 1332 
1312 1352 1371 1351 1372 1392 1390 1410 1412 
1411 1391 1451 1431 1432 1453 1472 1473 1452 
1513 1493 1512 1492 1532 1552 1533 1553 1574 
1573 1594 1593 1614 1653 1633 1613 1612 33 
52 12 32 1652 93 72 73 92 53 
113 112 134 155 154 175 196 195 235 
194 192 174 314 255 374 333 274 395 
273 294 313 414 435 293 353 312 455 
394 454 373 434 393 636 616 453 495 
515 475 575 555 534 474 513 595 736 
533 514 554 756 615 635 574 796 655 
755 675 715 654 634 714 694 976 775 
734 996 795 815 814 774 754 835 813 
794 834 854 833 853 875 832 975 995 
894 915 895 954 1015 934 1035 974 1055 
1075 994 1095 1136 1014 1216 1336 1175 1135 
1195 1155 1194 1115 1154 1114 1235 1255 1174 
1193 1295 1173 1275 1234 1315 1335 1254 1355 
1294 1273 1395 1375 1394 1314 1354 1415 1334 
1353 1373 1333 1374 1393 1414 1434 1596 1433 
1454 1413 1495 1475 1515 1474 1494 1535 1555 
1514 76 1534 1575 96 1554 1615 136 1595 
1655 1635 15 1654 55 75 1634 14 34 
54 13 95 74 156 94 176 114 135 
276 296 375 295 275 315 456 436 354 
897 476 516 536 496 957 415 535 937 
178 576 218 556 1037 997 596 977 1057 
1017 1077 656 676 696 278 716 298 1097 
1117 1177 1137 856 1217 816 1237 876 836 
776 1257 695 418 1277 936 956 1337 735 
1317 1357 1297 1016 1377 1417 1036 916 896 
1397 1056 1437 1477 1096 1076 935 1457 855 
1497 955 1517 1116 1157 1156 1537 1176 1196 
1577 1557 1215 1597 1617 1236 1276 1657 1296 
1256 1637 1356 37 1316 17 77 1376 1214 
57 117 1396 1416 97 137 1456 157 1436 
1476 1496 197 177 1516 1536 217 237 277 
297 1435 1455 1556 317 1576 337 1616 1636 
397 357 417 1656 437 376 36 1338 16 
457 517 497 477 56 537 257 557 116 
216 35 597 577 236 617 637 256 377 
115 316 336 657 697 717 335 356 355 
396 334 215 757 416 777 58 38 837 
817 857 158 138 118 139 159 179 917 
239 259 238 279 198 299 199 258 319 
339 219 318 359 379 1197 399 338 358 
419 459 398 378 439 438 519 479 499 
539 559 478 458 599 579 518 498 639 
538 619 659 598 578 679 558 699 618 
739 719 658 779 759 638 678 819 698 
799 738 718 859 839 758 899 778 879 
818 939 798 959 919 999 838 858 979 
898 878 1039 1019 918 1059 1079 938 1099 
978 1119 958 1018 1179 1139 1159 998 1038 
1078 1199 1219 1058 1259 1239 1098 1118 1158 
1299 1138 1279 1319 1198 1339 1178 1218 1238 
1359 1379 1419 1278 1399 1258 1459 1439 1318 
1298 1378 1499 1358 1479 1539 1398 1519 1418 
1438 1559 1579 1599 1458 1498 1478 1518 1639 
1619 1558 1538 1659 677 1578 1598 1618 19 
1638 39 1658 737 18 78 797 79 59 
877 98 119 99 2398 2401 2399 2400 2402 
2404 2403 2405 2409 2407 2408 2406 2411 2410 
2412 2413 2415 2417 2416 2414 2418 2419 2420 
2421 2426 2425 2427 2423 2424 2422 2429 2430 
2431 2428 2433 2434 2432 2435 2437 2439 2438 
2436 2443 2441 2440 2442 2447 2445 2444 2446 
2448 2451 2449 2450 2455 2453 2452 2454 2456 
2458 2459 2457 2462 2460 2463 2461 2465 2466 
2464 2467 2469 2470 2471 2468 2474 2475 2472 
2473 2476 2478 2479 2481 2480 2477 2482 2483 
2484 2485 2489 2486 2488 2487 2492 2493 2491 
2490 2497 2496 2495 2494 2500 2501 2498 2499 
2502 2504 2505 2503 2507 2506 2508 2509 2512 
2513 2511 2510 2514 2515 2516 2517 2519 2518 
2521 2520 2525 2523 2524 2522 2527 2526 2528 
2529 2533 2532 2530 2531 2538 2539 2537 2535 
2534 2536 2543 2540 2541 2542 2547 2546 2544 
2545 2550 2551 2549 2548 2552 2553 2555 2554 
2558 2556 2557 2559 2560 2561 2562 2563 
FIELD FieldData 7
r 3 2798 float
-0.5375 -0.4625 0 -0.5125 -0.4875 0 -0.5125 -0.4625 0 
-0.5375 -0.4875 0 -0.487805 -0.4875 0 -0.463415 -0.4875 0 
-0.463415 -0.4625 0 -0.487805 -0.4625 0 -0.439024 -0.4625 0 
-0.414634 -0.4625 0 -0.414634 -0.4875 0 -0.439024 -0.4875 0 
-0.365854 -0.4625 0 -0.390244 -0.4875 0 -0.365854 -0.4875 0 
-0.390244 -0.4625 0 -0.317073 -0.4875 0 -0.341463 -0.4625 0 
-0.317073 -0.4625 0 -0.341463 -0.4875 0 -0.268293 -0.4625 0 
-0.292683 -0.4625 0 -0.292683 -0.4875 0 -0.268293 -0.4875 0 
-0.243902 -0.4625 0 -0.219512 -0.4625 0 -0.219512 -0.4875 0 
-0.243902 -0.4875 0 -0.195122 -0.4875 0 -0.170732 -0.4875 0 
-0.195122 -0.4625 0 -0.170732 -0.4625 0 -0.121951 -0.4875 0 
-0.146341 -0.4625 0 -0.121951 -0.4625 0 -0.146341 -0.4875 0 
-0.0731707 -0.4875 0 -0.097561 -0.4625 0 -0.097561 -0.4875 0 
-0.0731707 -0.4625 0 -0.0487805 -0.4625 0 -0.0243903 -0.4625 0 
-0.0243903 -0.4875 0 -1.86265e-08 -0.4875 0 -0.0487805 -0.4875 0 
-1.86265e-08 -0.4625 0 0.0243902 -0.4875 0 0.0243902 -0.4625 0 
0.0487805 -0.4625 0 0.0487805 -0.4875 0 0.097561 -0.4875 0 
0.097561 -0.4625 0 0.0731707 -0.4625 0 0.0731707 -0.4875 0 
0.146341 -0.4625 0 0.121951 -0.4625 0 0.121951 -0.4875 0 
0.146341 -0.4875 0 0.170732 -0.4625 0 0.170732 -0.4875 0 
0.195122 -0.4875 0 0.195122 -0.4625 0 0.243902 -0.4875 0 
0.243902 -0.4625 0 0.219512 -0.4625 0 0.219512 -0.4875 0 
0.292683 -0.4875 0 0.292683 -0.4625 0 0.268293 -0.4625 0 
0.268293 -0.4875 0 0.317073 -0.4625 0 0.317073 -0.4875 0 
0.341463 -0.4875 0 0.341463 -0.4625 0 0.390244 -0.4875 0 
0.365854 -0.4625 0 0.390244 -0.4625 0 0.365854 -0.4875 0 
0.414634 -0.4625 0 0.439024 -0.4625 0 0.414634 -0.4875 0 
0.439024 -0.4875 0 0.463415 -0.4625 0 0.487805 -0.4875 0 
0.487805 -0.4625 0 0.463415 -0.4875 0 0.5375 -0.4875 0 
0.5375 -0.4625 0 0.5125 -0.4625 0 0.5125 -0.4875 0 
-0.5125 -0.4375 0 -0.5125 -0.4125 0 -0.5375 -0.4125 0 
-0.5375 -0.4375 0 -0.466335 -0.439097 0 -0.491547 -0.400757 0 
-0.472495 -0.415482 0 -0.490701 -0.434371 0 -0.420986 -0.439703 0 
-0.408294 -0.419374 0 -0.444454 -0.434012 0 -0.436128 -0.41252 0 
-0.393018 -0.437565 0 -0.374593 -0.410984 0 -0.370537 -0.43606 0 
-0.39397 -0.40044 0 -0.351191 -0.411222 0 -0.306336 -0.408384 0 
-0.323902 -0.436732 0 -0.347116 -0.437382 0 -0.301585 -0.436003 0 
-0.328188 -0.41053 0 -0.283058 -0.412432 0 -0.255944 -0.434566 0 
-0.260334 -0.407647 0 -0.278226 -0.437927 0 -0.212136 -0.436134 0 
-0.216213 -0.41163 0 -0.238455 -0.407323 0 -0.234978 -0.436751 0 
-0.161856 -0.400129 0 -0.178988 -0.415477 0 -0.19064 -0.435751 0 
-0.165334 -0.43969 0 -0.148433 -0.426305 0 -0.137968 -0.404133 0 
-0.116486 -0.411057 0 -0.107286 -0.435081 0 -0.130134 -0.439021 0 
-0.0938571 -0.407052 0 -0.0628863 -0.43761 0 -0.0857933 -0.43618 0 
-0.0504387 -0.406216 0 -0.072042 -0.411224 0 -0.0209112 -0.437978 0 
-0.00452857 -0.414221 0 -0.0420465 -0.433153 0 -0.0273566 -0.408832 0 
0.0243374 -0.432925 0 0.0459379 -0.43823 0 0.00360526 -0.437697 0 
0.0266705 -0.408076 0 0.049901 -0.410972 0 0.0682717 -0.435185 0 
0.0713539 -0.406479 0 0.0897321 -0.436678 0 0.0926415 -0.409872 0 
0.112693 -0.43718 0 0.138737 -0.412294 0 0.115187 -0.411206 0 
0.136132 -0.437525 0 0.161875 -0.412041 0 0.185659 -0.4091 0 
0.160102 -0.437976 0 0.18271 -0.435545 0 0.20919 -0.41444 0 
0.232014 -0.439154 0 0.205918 -0.438421 0 0.233845 -0.415413 0 
0.252675 -0.404969 0 0.281765 -0.439199 0 0.256202 -0.436692 0 
0.27335 -0.416274 0 0.298751 -0.415375 0 0.324397 -0.420233 0 
0.33866 -0.401993 0 0.338494 -0.439813 0 0.308514 -0.439552 0 
0.385042 -0.420321 0 0.396758 -0.439408 0 0.367464 -0.439929 0 
0.355417 -0.419848 0 0.445876 -0.421821 0 0.425938 -0.441123 0 
0.418978 -0.420218 0 0.404144 -0.404067 0 0.488242 -0.439546 0 
0.492424 -0.401678 0 0.45766 -0.440525 0 0.478011 -0.421899 0 
0.46323 -0.403525 0 0.5375 -0.4125 0 0.5125 -0.4125 0 
0.5125 -0.4375 0 0.5375 -0.4375 0 -0.5375 -0.3625 0 
-0.5125 -0.3625 0 -0.5125 -0.3875 0 -0.5375 -0.3875 0 
-0.457103 -0.399251 0 -0.478668 -0.3814 0 -0.460459 -0.364937 0 
-0.490187 -0.361388 0 -0.438432 -0.351148 0 -0.419821 -0.394639 0 
-0.442348 -0.381033 0 -0.420351 -0.367564 0 -0.354771 -0.385763 0 
-0.375362 -0.379581 0 -0.355804 -0.356826 0 -0.398035 -0.3743 0 
-0.376199 -0.35067 0 -0.333629 -0.357774 0 -0.310067 -0.38024 0 
-0.331821 -0.383942 0 -0.313073 -0.350261 0 -0.269959 -0.354759 0 
-0.287101 -0.386849 0 -0.291533 -0.360291 0 -0.264724 -0.38114 0 
-0.242367 -0.379482 0 -0.204326 -0.367134 0 -0.220559 -0.382744 0 
-0.226048 -0.352211 0 -0.247316 -0.352557 0 -0.182146 -0.382577 0 
-0.18571 -0.35368 0 -0.197947 -0.399668 0 -0.162576 -0.370249 0 
-0.120741 -0.357857 0 -0.116654 -0.383294 0 -0.140912 -0.378733 0 
-0.143802 -0.350628 0 -0.0965003 -0.356737 0 -0.0722251 -0.358261 0 
-0.0929716 -0.381974 0 -0.0689357 -0.383428 0 -0.0235748 -0.357203 0 
-0.04722 -0.355488 0 -0.0450339 -0.380109 0 -0.0213005 -0.385259 0 
-0.00172996 -0.371454 0 0.0241654 -0.375059 0 0.0437254 -0.384857 0 
0.0300562 -0.350732 0 0.00743081 -0.395389 0 0.052526 -0.35572 0 
0.0654341 -0.378991 0 0.0872074 -0.380318 0 0.0982845 -0.35479 0 
0.0759395 -0.351399 0 0.121545 -0.361031 0 0.108577 -0.38453 0 
0.13206 -0.38676 0 0.14674 -0.362492 0 0.156037 -0.386362 0 
0.1996 -0.37233 0 0.172447 -0.360968 0 0.180136 -0.385691 0 
0.234481 -0.38494 0 0.228226 -0.363031 0 0.212221 -0.391765 0 
0.25838 -0.379158 0 0.289371 -0.372369 0 0.280172 -0.392249 0 
0.259439 -0.357337 0 0.308609 -0.39463 0 0.34933 -0.359894 0 
0.310943 -0.363794 0 0.328227 -0.380217 0 0.377444 -0.365586 0 
0.355584 -0.381732 0 0.370542 -0.399927 0 0.390114 -0.384927 0 
0.434035 -0.363276 0 0.434918 -0.398361 0 0.417622 -0.381233 0 
0.404211 -0.360677 0 0.45186 -0.380897 0 0.478871 -0.38229 0 
0.462025 -0.358794 0 0.489731 -0.363683 0 0.5125 -0.3625 0 
0.5375 -0.3875 0 0.5375 -0.3625 0 0.5125 -0.3875 0 
-0.5125 -0.3375 0 -0.5125 -0.3125 0 -0.5375 -0.3125 0 
-0.5375 -0.3375 0 -0.488998 -0.333565 0 -0.466679 -0.312911 0 
-0.488427 -0.306791 0 -0.467861 -0.342148 0 -0.407489 -0.315093 0 
-0.432195 -0.308763 0 -0.446459 -0.327556 0 -0.418874 -0.336338 0 
-0.398768 -0.347906 0 -0.38514 -0.323539 0 -0.362277 -0.324704 0 
-0.30378 -0.304863 0 -0.342018 -0.331173 0 -0.32162 -0.322947 0 
-0.251824 -0.32578 0 -0.274668 -0.328953 0 -0.279325 -0.303195 0 
-0.296827 -0.331065 0 -0.211615 -0.307432 0 -0.208984 -0.33665 0 
-0.230752 -0.321849 0 -0.1664 -0.341174 0 -0.189397 -0.325403 0 
-0.170134 -0.310951 0 -0.126596 -0.330632 0 -0.102053 -0.308481 0 
-0.126759 -0.304738 0 -0.102763 -0.332816 0 -0.149522 -0.321513 0 
-0.05408 -0.332886 0 -0.0772057 -0.308117 0 -0.0541893 -0.303092 0 
-0.0775592 -0.332386 0 -0.0209069 -0.334682 0 -0.0351419 -0.31797 0 
-0.00553006 -0.302669 0 0.00553922 -0.348754 0 0.0254281 -0.324616 0 