# vtk DataFile Version 4.0
vtk output
ASCII
DATASET POLYDATA
FIELD FieldData 4
domain 1 3 string
domain_min:-20|-15
domain_max:20|15
cell_size:0.05

variables 1 2 string
dt:0.000372678
T:0.915647

constants 1 10 string
xsize:2
ysize:1
csize:0.05
dx:0.0238095
h:0.025
rho0:1000
mass:0.566894
g:1|0
c:13.4164
CFL:0.2

functions 1 8 string
time:T=(T+dt)
continuity:rho_dot=((-(rho*sph_D00(v,mass,rho,Wp52220)))+(((0.1*c)*h)*sph_L00(rho,mass,rho,Wp52220)))
irho:rho=(rho+int1((rho_dot,dt))
EOS:p=(((c^2)*(rho-rho0))+10000)
euler:a=if((gid,(0*v),(((-((1/rho)*sph_G11(p,mass,rho,Wp52220)))+(0.01*sph_L00(v,mass,rho,Wp52220)))+g))
vel:v=(v+int1((a,dt))
pos:r=(r+int1((v,dt))
new_dt:dt=(CFL*min((sqrt(((h/fmax(magnitude((a)))),(h/c)))

POINTS 2798 float
-0.5375 -0.4625 0 -0.5125 -0.4875 0 -0.5125 -0.4625 0 
-0.5375 -0.4875 0 -0.487805 -0.4875 0 -0.463415 -0.4625 0 
-0.487805 -0.4625 0 -0.463415 -0.4875 0 -0.439024 -0.4875 0 
-0.414634 -0.4625 0 -0.439024 -0.4625 0 -0.414634 -0.4875 0 
-0.365854 -0.4625 0 -0.365854 -0.4875 0 -0.390244 -0.4875 0 
-0.390244 -0.4625 0 -0.341463 -0.4875 0 -0.341463 -0.4625 0 
-0.317073 -0.4875 0 -0.317073 -0.4625 0 -0.292683 -0.4875 0 
-0.268293 -0.4875 0 -0.292683 -0.4625 0 -0.268293 -0.4625 0 
-0.219512 -0.4625 0 -0.219512 -0.4875 0 -0.243902 -0.4875 0 
-0.243902 -0.4625 0 -0.170732 -0.4875 0 -0.170732 -0.4625 0 
-0.195122 -0.4625 0 -0.195122 -0.4875 0 -0.146341 -0.4625 0 
-0.146341 -0.4875 0 -0.121951 -0.4625 0 -0.121951 -0.4875 0 
-0.0731707 -0.4625 0 -0.097561 -0.4625 0 -0.097561 -0.4875 0 
-0.0731707 -0.4875 0 -0.0243903 -0.4625 0 -0.0487805 -0.4875 0 
-0.0243903 -0.4875 0 -1.86265e-08 -0.4875 0 -1.86265e-08 -0.4625 0 
-0.0487805 -0.4625 0 0.0243902 -0.4625 0 0.0487805 -0.4875 0 
0.0487805 -0.4625 0 0.0243902 -0.4875 0 0.0731707 -0.4875 0 
0.097561 -0.4625 0 0.097561 -0.4875 0 0.0731707 -0.4625 0 
0.121951 -0.4625 0 0.121951 -0.4875 0 0.146341 -0.4625 0 
0.146341 -0.4875 0 0.170732 -0.4875 0 0.195122 -0.4875 0 
0.170732 -0.4625 0 0.195122 -0.4625 0 0.219512 -0.4625 0 
0.219512 -0.4875 0 0.243902 -0.4625 0 0.243902 -0.4875 0 
0.268293 -0.4875 0 0.292683 -0.4875 0 0.268293 -0.4625 0 
0.292683 -0.4625 0 0.317073 -0.4875 0 0.317073 -0.4625 0 
0.341463 -0.4625 0 0.341463 -0.4875 0 0.390244 -0.4625 0 
0.365854 -0.4625 0 0.365854 -0.4875 0 0.390244 -0.4875 0 
0.414634 -0.4625 0 0.439024 -0.4875 0 0.414634 -0.4875 0 
0.439024 -0.4625 0 0.487805 -0.4875 0 0.487805 -0.4625 0 
0.463415 -0.4875 0 0.463415 -0.4625 0 0.5125 -0.4625 0 
0.5375 -0.4875 0 0.5125 -0.4875 0 0.5375 -0.4625 0 
-0.5375 -0.4375 0 -0.5125 -0.4375 0 -0.5125 -0.4125 0 
-0.5375 -0.4125 0 -0.464717 -0.435281 0 -0.488388 -0.412482 0 
-0.466914 -0.406115 0 -0.487792 -0.437849 0 -0.440973 -0.438375 0 
-0.416675 -0.435925 0 -0.420266 -0.411453 0 -0.444684 -0.41322 0 
-0.394298 -0.437883 0 -0.366691 -0.438269 0 -0.379614 -0.418247 0 
-0.399152 -0.405096 0 -0.350147 -0.41288 0 -0.342527 -0.437273 0 
-0.318529 -0.437205 0 -0.326204 -0.411732 0 -0.302474 -0.41082 0 
-0.279523 -0.41013 0 -0.294965 -0.436853 0 -0.257333 -0.408113 0 
-0.271823 -0.43654 0 -0.204678 -0.436462 0 -0.213482 -0.409567 0 
-0.227332 -0.436469 0 -0.235502 -0.408574 0 -0.249572 -0.435731 0 
-0.191062 -0.409617 0 -0.168482 -0.410821 0 -0.158583 -0.4372 0 
-0.181926 -0.436718 0 -0.122304 -0.411191 0 -0.134933 -0.437195 0 
-0.11138 -0.437171 0 -0.145506 -0.41136 0 -0.0990585 -0.411318 0 
-0.0637102 -0.437668 0 -0.0754561 -0.412119 0 -0.0507748 -0.413857 0 
-0.0877706 -0.437299 0 -0.0387371 -0.438152 0 -0.0133447 -0.438086 0 
-0.0251847 -0.414575 0 0.0115882 -0.437846 0 0.0262368 -0.414546 0 
0.0369778 -0.438293 0 0.000395571 -0.413746 0 0.0630107 -0.43819 0 
0.0800218 -0.41586 0 0.0892288 -0.438449 0 0.0525551 -0.415433 0 
0.131758 -0.413664 0 0.139938 -0.437642 0 0.106202 -0.414597 0 
0.114862 -0.437971 0 0.166468 -0.438331 0 0.189401 -0.416574 0 
0.159713 -0.416564 0 0.193005 -0.438435 0 0.243429 -0.414924 0 
0.246165 -0.438337 0 0.219654 -0.438727 0 0.217537 -0.416185 0 
0.298572 -0.417895 0 0.273935 -0.43931 0 0.270094 -0.417944 0 
0.302157 -0.439152 0 0.327484 -0.41849 0 0.330461 -0.439546 0 
0.383792 -0.416174 0 0.356073 -0.418286 0 0.386061 -0.438487 0 
0.358857 -0.439509 0 0.412507 -0.438894 0 0.411343 -0.416421 0 
0.437927 -0.415828 0 0.438944 -0.438685 0 0.488246 -0.413172 0 
0.464068 -0.437634 0 0.488443 -0.437918 0 0.463739 -0.413214 0 
0.5125 -0.4125 0 0.5375 -0.4375 0 0.5125 -0.4375 0 
0.5375 -0.4125 0 -0.5375 -0.3875 0 -0.5375 -0.3625 0 
-0.5125 -0.3875 0 -0.5125 -0.3625 0 -0.451116 -0.385585 0 
-0.490367 -0.355841 0 -0.489134 -0.386082 0 -0.455184 -0.352545 0 
-0.470713 -0.372885 0 -0.42688 -0.387824 0 -0.408888 -0.372901 0 
-0.4348 -0.362418 0 -0.388123 -0.383548 0 -0.352181 -0.377673 0 
-0.392716 -0.350675 0 -0.372939 -0.363568 0 -0.366364 -0.396651 0 
-0.308962 -0.358879 0 -0.307872 -0.38467 0 -0.331487 -0.387763 0 
-0.331342 -0.359767 0 -0.261803 -0.381214 0 -0.26273 -0.354556 0 
-0.2855 -0.35756 0 -0.284577 -0.383967 0 -0.218341 -0.354546 0 
-0.217545 -0.382221 0 -0.239522 -0.380511 0 -0.240287 -0.352864 0 
-0.173872 -0.356909 0 -0.172298 -0.383825 0 -0.195046 -0.382762 0 
-0.151246 -0.358137 0 -0.196337 -0.355761 0 -0.149552 -0.384999 0 
-0.106006 -0.359173 0 -0.126535 -0.385064 0 -0.103252 -0.385274 0 
-0.128859 -0.358418 0 -0.082333 -0.360715 0 -0.057955 -0.364208 0 
-0.0552714 -0.389195 0 -0.079605 -0.386399 0 -0.0334213 -0.365903 0 
-0.0304524 -0.390651 0 -0.00933085 -0.365131 0 -0.00560582 -0.389902 0 
0.0456182 -0.391915 0 0.0199818 -0.390782 0 0.0156249 -0.367112 0 
0.0417315 -0.368219 0 0.0716403 -0.393639 0 0.0677 -0.370153 0 
0.0927884 -0.367577 0 0.097304 -0.391177 0 0.121885 -0.389719 0 
0.149876 -0.394521 0 0.142602 -0.371867 0 0.117661 -0.364277 0 
0.189308 -0.352695 0 0.170383 -0.375248 0 0.178791 -0.39689 0 
0.197994 -0.37584 0 0.163773 -0.351913 0 0.21343 -0.351047 0 
0.245902 -0.354482 0 0.209055 -0.395237 0 0.226341 -0.371451 0 
0.236784 -0.391656 0 0.290187 -0.396589 0 0.259016 -0.372687 0 
0.26403 -0.394632 0 0.278687 -0.352572 0 0.287284 -0.372841 0 
0.338917 -0.354918 0 0.348708 -0.39773 0 0.340358 -0.377012 0 
0.319249 -0.397863 0 0.312386 -0.376346 0 0.313037 -0.353834 0 
0.396255 -0.354328 0 0.368577 -0.352486 0 0.367269 -0.374106 0 
0.396041 -0.375461 0 0.377109 -0.395155 0 0.436697 -0.393777 0 
0.426322 -0.353857 0 0.407118 -0.395422 0 0.424785 -0.374548 0 
0.462965 -0.389361 0 0.483709 -0.366938 0 0.453232 -0.368702 0 
0.488622 -0.388624 0 0.5125 -0.3625 0 0.5125 -0.3875 0 
0.5375 -0.3625 0 0.5375 -0.3875 0 -0.5375 -0.3375 0 
-0.5375 -0.3125 0 -0.5125 -0.3125 0 -0.5125 -0.3375 0 
-0.454368 -0.321627 0 -0.469368 -0.30348 0 -0.490207 -0.32156 0 
-0.474441 -0.337995 0 -0.41302 -0.314266 0 -0.433405 -0.303295 0 
-0.434415 -0.332542 0 -0.415097 -0.344923 0 -0.393302 -0.323455 0 
-0.353147 -0.315436 0 -0.375131 -0.303841 0 -0.351975 -0.348204 0 
-0.371087 -0.333445 0 -0.333989 -0.329877 0 -0.316953 -0.306952 0 
-0.31157 -0.333295 0 -0.288095 -0.331326 0 -0.265033 -0.328108 0 
-0.293738 -0.305868 0 -0.270163 -0.302578 0 -0.220286 -0.326465 0 
-0.242505 -0.325561 0 -0.198608 -0.327744 0 -0.158972 -0.304205 0 
-0.154206 -0.331067 0 -0.176786 -0.329654 0 -0.18127 -0.301356 0 
-0.136515 -0.303012 0 -0.114227 -0.305356 0 -0.109853 -0.33269 0 
-0.132122 -0.330756 0 -0.0905384 -0.310123 0 -0.0859511 -0.335244 0 
-0.0609385 -0.339283 0 -0.0647486 -0.31497 0 -0.0392666 -0.316368 0 
-0.0157931 -0.31262 0 -0.012462 -0.339196 0 -0.0361401 -0.340984 0 
0.0112569 -0.342275 0 0.007387 -0.315913 0 0.0306436 -0.319089 0 
0.0359622 -0.344612 0 0.0548057 -0.322129 0 0.0618885 -0.346248 0 
0.085904 -0.343479 0 0.0781706 -0.318027 0 0.101073 -0.316753 0 
0.110547 -0.340908 0 0.139739 -0.346749 0 0.118364 -0.301091 0 
0.147859 -0.309857 0 0.130299 -0.325181 0 0.163386 -0.32796 0 
0.189017 -0.328949 0 0.177388 -0.304955 0 0.245255 -0.314539 0 
0.231255 -0.334483 0 0.21107 -0.321418 0 0.264105 -0.300228 0 
0.280229 -0.319135 0 0.261548 -0.334964 0 0.297614 -0.336615 0 
0.348511 -0.334313 0 0.322642 -0.328802 0 0.326547 -0.30506 0 
0.302209 -0.308279 0 0.377484 -0.330981 0 0.380322 -0.309085 0 
0.352175 -0.312582 0 0.434124 -0.312136 0 0.405813 -0.334434 0 
0.434836 -0.333869 0 0.406796 -0.312806 0 0.46148 -0.325868 0 
0.458851 -0.348493 0 0.487735 -0.323561 0 0.487135 -0.346259 0 
0.462922 -0.303114 0 0.5125 -0.3125 0 0.5125 -0.3375 0 
0.5375 -0.3125 0 0.5375 -0.3375 0 -0.5125 -0.2875 0 
-0.5375 -0.2875 0 -0.5125 -0.2625 0 -0.5375 -0.2625 0 
-0.488889 -0.292371 0 -0.467039 -0.270813 0 -0.488122 -0.265594 0 
-0.450051 -0.287345 0 -0.432038 -0.267739 0 -0.40051 -0.26022 0 
-0.449685 -0.252417 0 -0.415383 -0.283416 0 -0.36048 -0.283698 0 
-0.379673 -0.269084 0 -0.394689 -0.291843 0 -0.360863 -0.251684 0 
-0.319377 -0.278339 0 -0.341674 -0.267121 0 -0.322424 -0.250272 0 
-0.338202 -0.296476 0 -0.273424 -0.276666 0 -0.250887 -0.271816 0 
-0.299023 -0.25428 0 -0.296763 -0.280309 0 -0.275657 -0.250737 0 
-0.224893 -0.298876 0 -0.202824 -0.299208 0 -0.24747 -0.298611 0 
-0.205393 -0.271341 0 -0.228079 -0.272025 0 -0.161641 -0.277121 0 
-0.183556 -0.272721 0 -0.116044 -0.251446 0 -0.1161 -0.277847 0 
-0.138962 -0.276204 0 -0.092636 -0.258538 0 -0.0932025 -0.284467 0 
-0.0690661 -0.266181 0 -0.0685427 -0.290871 0 -0.0196516 -0.286423 0 
-0.0432558 -0.292169 0 -0.044443 -0.267852 0 -0.0195248 -0.260685 0 
0.0044979 -0.263977 0 0.0283229 -0.266072 0 0.0272329 -0.292553 0 
0.00405839 -0.289303 0 0.0506881 -0.296603 0 0.0727866 -0.265706 0 
0.0504808 -0.270425 0 0.0956671 -0.28788 0 0.0933448 -0.258025 0 
0.0740472 -0.292669 0 0.114166 -0.271529 0 0.12585 -0.250064 0 
0.13621 -0.285659 0 0.146384 -0.263578 0 0.162453 -0.287603 0 
0.173979 -0.267837 0 0.195731 -0.275709 0 0.19969 -0.298588 0 
0.226596 -0.299773 0 0.247591 -0.2818 0 0.23493 -0.257306 0 
0.204622 -0.252148 0 0.221295 -0.276002 0 0.285222 -0.288251 0 
0.291632 -0.260579 0 0.267884 -0.268833 0 0.308441 -0.281197 0 
0.334181 -0.282548 0 0.344483 -0.258884 0 0.319352 -0.258305 0 
[...]
POINT_DATA 2798
SCALARS id float
LOOKUP_TABLE default
2601 2620 2621 2600 2640 2643 2641 2642 2644 
2647 2645 2646 2651 2650 2648 2649 2652 2653 
2654 2655 2656 2658 2657 2659 2663 2662 2660 
2661 2666 2667 2665 2664 2669 2668 2671 2670 
2675 2673 2672 2674 2679 2676 2678 2680 2681 
2677 2683 2684 2685 2682 2686 2689 2688 2687 
2691 2690 2693 2692 2694 2696 2695 2697 2699 
2698 2701 2700 2702 2704 2703 2705 2706 2707 
2709 2708 2713 2711 2710 2712 2715 2716 2714 
2717 2720 2721 2718 2719 2723 2742 2722 2743 
2602 2622 2623 2603 1678 1661 1679 1660 1696 
1714 1715 1697 1732 1768 1750 1733 1787 1786 
1804 1805 1823 1841 1822 1859 1840 1894 1895 
1876 1877 1858 1913 1931 1930 1912 1967 1948 
1966 1949 1985 2002 2003 2021 1984 2020 2038 
2039 2056 2075 2074 2057 2092 2111 2110 2093 
2147 2146 2129 2128 2164 2183 2165 2182 2219 
2218 2200 2201 2255 2236 2237 2254 2273 2272 
2309 2291 2308 2290 2326 2327 2345 2344 2381 
2362 2380 2363 2725 2744 2724 2745 2604 2605 
2624 2625 1698 1663 1662 1699 1680 1716 1734 
1717 1751 1788 1752 1770 1769 1825 1824 1806 
1807 1860 1861 1843 1842 1897 1896 1878 1879 
1933 1932 1914 1951 1915 1950 1987 1968 1986 
1969 2005 2023 2022 2004 2041 2040 2059 2058 
2094 2076 2077 2095 2112 2113 2131 2130 2148 
2166 2167 2149 2204 2185 2184 2203 2186 2222 
2240 2202 2221 2220 2256 2239 2238 2258 2257 
2294 2292 2293 2274 2275 2276 2330 2312 2311 
2329 2310 2346 2348 2328 2347 2364 2383 2365 
2382 2727 2726 2747 2746 2606 2607 2627 2626 
1700 1682 1664 1681 1736 1719 1718 1735 1753 
1790 1772 1789 1771 1808 1827 1826 1844 1862 
1845 1863 1898 1880 1916 1953 1952 1934 1935 
1971 1989 1988 1970 2007 2006 2024 2025 2043 
2061 2060 2042 2078 2079 2097 2096 2115 2114 
2132 2133 2151 2150 2168 2170 2188 2169 2187 
2205 2189 2224 2223 2206 2225 2242 2241 2259 
2295 2277 2278 2260 2313 2314 2296 2350 2331 
2349 2332 2367 2366 2385 2384 2368 2729 2728 
2749 2748 2628 2608 2629 2609 1665 1683 1666 
1701 1720 1755 1702 1737 1791 1773 1754 1792 
1828 1810 1829 1809 1864 1882 1847 1846 1865 
1899 1917 1881 1918 1900 1954 1936 1991 1990 
1972 2009 2008 2027 2026 2062 2044 2045 2063 
2081 2099 2098 2080 2116 2135 2117 2152 2136 
2134 2153 2137 2171 2154 2172 2155 2173 2190 
2207 2208 2174 2156 2191 2243 2244 2226 2261 
2279 2280 2262 2298 2315 2297 2316 2334 2352 
2351 2333 2388 2369 2386 2387 2751 2731 2730 
2750 2610 2630 2631 2611 1667 1703 1668 1684 
1739 1756 1757 1721 1738 1774 1775 1793 1812 
1811 1848 1830 1883 1866 1884 1867 1901 1919 
1920 1902 1955 1938 1937 1956 1973 1992 1993 
1974 2029 2011 2010 2028 2065 2047 2064 2046 
2101 2100 2083 2082 2119 2103 2104 2118 2105 
2120 2121 2138 2139 2071 2122 2123 2157 2089 
2141 2140 2192 2209 2227 2263 2245 2210 2228 
2265 2281 2299 2264 2282 2246 2300 2336 2335 
2317 2353 2370 2371 2389 2753 2732 2752 2733 
2613 2632 2633 2612 1669 1685 1704 1686 1741 
1759 1758 1740 1722 1776 1794 1795 1777 1849 
1832 1813 1831 1869 1886 1885 1868 1903 1921 
1940 1904 1922 1939 1958 1976 1957 1994 1975 
1977 1995 2030 2012 2013 1996 1978 2014 2031 
2048 2066 2067 2084 2049 2102 2086 2085 2050 
2032 2087 2033 2069 2068 2088 2051 2106 2070 
1839 2000 2053 2052 2035 2158 2036 2175 2159 
2177 2176 2193 2211 2229 2247 2194 2212 2266 
2284 2283 2318 2390 2372 2354 2391 2735 2755 
2734 2754 2615 2635 2634 2614 1723 1687 1670 
1705 1724 1742 1760 1743 1778 1761 1796 1814 
1815 1850 1816 1833 1834 1852 1870 1851 1871 
1905 1887 1923 1924 1925 1941 1906 1959 1942 
1943 1960 1909 1961 1927 1944 1945 1979 1874 
1785 1892 1962 2015 1997 1980 1910 1998 1999 
1963 2017 1981 160 2016 1982 2034 1964 1857 
1946 1928 1 1821 180 2107 1838 1911 1893 
2054 2124 2018 2072 2125 1929 2248 2195 2142 
2230 2301 2337 2355 2267 2231 2736 2737 2756 
2757 2637 2616 2636 2617 1707 1671 1688 1706 
1726 1725 1744 1708 1691 1727 1780 1762 1779 
1745 1763 1797 1781 1746 1798 1888 1817 1783 
1799 1835 1889 1853 1872 1907 1926 1836 1748 
1855 1801 1908 1856 1890 1818 1560 80 1837 
1819 1891 1873 1241 1767 1749 1731 1520 1713 
1802 1540 1261 1580 1201 1820 1600 1361 40 
1281 1803 1561 60 1541 20 140 1521 1522 
1481 120 1581 21 1362 1441 280 1875 1461 
320 340 2213 2090 2373 2178 2285 2319 2758 
2738 2759 2739 2564 2566 2567 2565 2568 2569 
2571 2570 2575 2574 2572 2573 2578 2579 2576 
2577 2581 2582 2583 2580 2586 2585 2584 2587 
2588 2590 2591 2589 2595 2593 2594 2592 2597 
2598 2596 2599 2638 2619 2639 2618 1673 1690 
1689 1672 1676 1675 1710 1674 1709 1120 1140 
1711 1080 1100 762 1728 1220 1180 1695 1160 
1782 1692 1693 1764 1280 1729 1854 1765 1800 
1747 1340 1730 1360 1500 1380 1784 1712 1041 
1040 1480 1766 1440 1081 1101 1141 1400 1420 
1460 1121 1102 1181 1161 1062 1122 1301 1082 
1321 100 1221 1142 1183 1222 1202 1282 1341 
1620 1262 1242 1182 0 1640 1243 1401 1381 
2160 1543 1601 1402 1621 181 2249 1947 2761 
2740 2760 2741 2764 2762 2765 2763 2767 2769 
2766 2768 2773 2770 2772 2771 2776 2777 2774 
2775 2781 2780 2778 2779 2782 2785 2783 2784 
2786 2789 2788 2787 2790 2792 2793 2791 2796 
2797 2794 2795 2287 2019 2358 2109 2376 2270 
2359 2395 2360 2394 500 2163 2269 2306 341 
2235 2324 2341 2377 640 2342 2253 2217 2396 
680 2307 840 2199 441 2271 2325 461 421 
800 2343 660 700 740 2361 2378 860 561 
720 2379 1020 2289 542 1060 482 521 2397 
761 820 721 780 900 601 880 661 920 
722 682 1677 1200 1694 940 881 1300 1240 
1260 960 802 980 801 861 1000 1001 921 
783 822 901 1320 803 941 862 981 823 
843 961 1061 942 1002 903 922 962 923 
1021 883 1022 982 1043 1063 1042 1023 1083 
1162 1123 1163 1203 1103 1143 1144 1223 1421 
1184 1302 1263 1322 1542 220 1502 1342 2338 
2143 2302 1382 1523 260 2392 240 1582 2320 
300 2196 2232 2161 2214 201 2356 2108 2250 
2179 2215 161 2198 2126 2303 41 2251 2233 
2374 2339 2357 2393 2234 2180 2216 2305 143 
2321 2252 2304 2323 2055 2375 2037 84 1644 
103 2073 2001 2286 163 380 2340 440 460 
221 480 2091 2322 400 420 261 281 520 
2288 2127 223 2145 321 282 301 302 580 
263 600 2181 540 362 620 560 361 481 
401 442 342 381 363 323 462 501 382 
541 402 343 422 383 443 403 621 463 
423 522 701 582 760 581 681 641 602 
562 563 622 702 583 781 643 703 662 
683 623 821 663 841 684 664 723 741 
742 782 724 744 743 763 842 784 804 
824 805 902 785 882 863 844 864 904 
963 884 943 983 1003 944 924 1045 984 
1024 964 1044 1025 1084 1064 1004 1164 1065 
1104 1085 1204 1145 1185 1283 1124 1442 1224 
1244 1303 1343 1482 1501 1363 1562 1422 1383 
1483 1344 1462 1641 1544 200 1423 1463 1563 
1404 1564 1503 1602 61 81 141 162 1642 
42 2162 2144 182 2268 2197 1965 83 23 
360 1983 22 3 82 1605 1643 123 4 
63 64 104 43 62 44 45 25 26 
124 144 85 241 105 222 183 242 165 
184 203 224 204 262 146 166 205 243 
283 244 264 245 303 225 322 304 284 
324 305 364 325 344 346 365 404 345 
424 483 405 384 502 464 444 425 484 
504 503 523 543 524 544 603 642 564 
584 605 604 585 565 624 626 625 645 
644 665 685 704 725 705 706 726 764 
745 765 766 746 786 825 787 806 845 
826 846 885 866 865 906 905 886 945 
946 926 925 965 1005 966 985 1086 1046 
1026 1066 1105 1087 1125 1106 1126 1225 1186 
1165 1205 1284 1245 1264 1226 1265 1323 1324 
1285 1364 1403 1304 1345 1366 1365 1384 1385 
1346 1443 1424 1386 1464 1444 1405 1524 1545 
1583 1622 1484 1603 102 1584 2 121 101 
1623 142 122 1546 1585 1604 1567 1625 1566 
1624 1586 1606 1645 24 1626 5 1646 6 
46 7 65 67 27 47 86 87 66 
164 125 202 106 145 127 147 126 186 
185 148 187 167 226 227 206 207 247 
246 266 285 265 287 306 267 286 307 
326 366 327 347 385 406 367 386 445 
426 407 427 485 466 446 465 506 525 
486 505 526 546 545 527 547 587 567 
586 566 606 627 607 647 667 646 666 
707 686 687 708 727 747 768 748 767 
788 808 807 828 827 847 867 907 888 
908 887 868 948 928 927 947 967 987 
986 968 1007 1047 1006 1027 1067 1088 1068 
1089 1146 1107 1127 1128 1108 1206 1166 1167 
1147 1207 1187 1208 1228 1227 1247 1266 1246 
1287 1325 1286 1305 1267 1326 1306 1307 1327 
1387 1406 1347 1367 1426 1425 1407 1446 1445 
1485 1525 1504 1466 1465 1486 1505 1506 1565 
1526 1508 1527 1507 1547 1528 1548 1568 1587 
1588 1607 1608 1627 1648 1647 1628 8 28 
1649 9 29 49 48 68 88 69 89 
107 129 108 109 168 149 128 169 189 
188 208 209 248 249 229 228 288 269 
289 268 329 309 308 328 369 349 368 
348 408 387 388 409 447 429 428 448 
449 467 487 488 468 528 508 548 507 
549 569 568 589 588 629 608 628 609 
649 669 648 668 688 709 689 729 769 
770 749 728 809 789 790 849 848 829 
909 870 889 869 890 910 949 950 930 
929 969 988 989 1028 1009 1008 1029 1049 
1048 1070 1069 1090 1109 1110 1129 1130 1169 
1149 1168 1148 1210 1189 1188 1209 1230 1249 
1229 1248 1269 1289 1288 1268 1308 1309 1328 
1329 1369 1388 1348 1368 1427 1428 1409 1408 
1447 1467 1429 1448 1488 1468 1487 1510 1509 
1511 1531 1529 1530 1550 1549 1590 1589 1569 
1570 1611 1630 1631 1629 1610 1609 11 10 
1650 1651 50 31 30 51 91 90 70 
71 111 110 130 131 151 150 171 170 
191 190 231 211 210 271 250 230 251 
270 311 290 291 351 350 331 330 310 
371 390 370 389 411 431 410 430 470 
450 471 451 489 510 490 469 550 530 
551 529 509 571 591 590 570 631 610 
611 630 670 651 650 671 710 711 691 
690 750 731 751 771 730 772 791 810 
811 792 831 850 830 851 892 891 871 
911 912 951 932 931 970 971 991 990 
952 1011 1010 1030 1031 1051 1071 1050 1091 
1092 1112 1111 1151 1131 1132 1150 1170 1211 
1171 1191 1190 1250 1231 1232 1251 1290 1271 
1291 1270 1330 1311 1331 1310 1350 1370 1351 
1349 1371 1389 1410 1391 1390 1411 1450 1430 
1449 1451 1431 1470 1489 1469 1490 1491 1471 
1513 1533 1532 1512 1551 1571 1552 1572 1612 
1591 1613 1592 1593 1633 1653 1632 1652 12 
33 13 73 32 72 52 53 93 112 
92 113 132 133 152 153 172 193 192 
173 233 212 232 213 272 252 253 273 
313 312 293 292 333 352 353 332 391 
373 392 393 372 433 413 432 412 472 
453 473 452 493 492 513 511 512 491 
553 531 552 532 573 592 593 572 632 
613 633 612 652 672 653 673 692 712 
713 693 773 752 753 732 733 793 813 
812 833 852 853 832 873 893 872 913 
914 933 972 992 973 993 953 1033 1013 
1032 1012 1073 1053 1072 1052 1093 1114 1113 
1152 1153 1134 1133 1192 1193 1173 1172 1213 
1253 1252 1233 1212 1292 1293 1273 1272 1313 
1333 1332 1312 1353 1373 1372 1352 1392 1393 
1413 1412 1453 1433 1432 1452 1473 1472 1492 
1493 1534 1535 1514 1515 1555 1554 1553 1575 
1573 1574 1594 1614 1615 1595 1634 1635 1655 
1654 15 35 34 14 75 54 55 74 
95 94 115 114 155 135 154 134 175 
174 195 194 215 214 235 234 255 274 
254 295 275 294 315 335 314 334 354 
355 375 374 394 395 415 414 435 434 
455 454 475 495 474 494 514 515 534 
555 554 533 595 574 594 575 634 614 
615 635 655 674 675 654 715 694 714 
695 734 735 754 774 775 755 795 814 
794 815 854 834 855 835 874 895 894 
875 934 915 955 935 954 974 975 994 
995 1035 1014 1015 1034 1074 1075 1054 1055 
1095 1094 1115 1154 1135 1155 1174 1175 1195 
1194 1215 1214 1235 1255 1254 1234 1274 1295 
1294 1275 1315 1314 1335 1334 1354 1375 1374 
1355 1415 1394 1414 1395 1435 1434 1454 1455 
1494 1474 1495 1475 1557 1536 1537 1516 1556 
1577 1576 1597 1596 1617 1637 1616 1657 17 
1656 1636 16 36 57 37 76 97 77 
56 96 117 116 137 157 177 156 136 
176 197 196 216 217 236 277 237 257 
256 276 317 297 296 357 336 337 316 
376 397 377 356 417 416 396 477 437 
436 456 457 496 517 476 497 537 535 
516 536 577 557 576 556 616 597 617 
596 657 637 636 676 697 677 656 696 
716 736 737 717 757 797 756 777 776 
796 816 817 837 857 856 877 836 897 
896 917 916 876 956 977 936 957 937 
1017 996 976 997 1037 1016 1057 1036 1077 
1056 1097 1076 1137 1136 1157 1116 1096 1117 
1156 1177 1197 1176 1196 1237 1217 1216 1257 
1236 1256 1277 1276 1296 1317 1297 1357 1316 
1336 1337 1356 1376 1397 1377 1396 1416 1437 
1417 1456 1477 1436 1457 1476 1517 1496 1497 
58 38 559 579 78 98 619 599 118 
138 659 639 158 178 699 679 218 719 
739 198 238 258 779 759 298 799 278 
819 338 839 318 859 358 899 378 879 
939 418 919 398 438 959 458 979 1019 
1039 999 478 498 518 1079 1059 538 578 
1099 1119 558 1159 618 1139 598 638 1199 
658 1179 678 698 1219 1239 738 1299 718 
1279 758 1259 778 1319 1339 798 1379 1359 
838 818 858 1419 1399 878 1439 918 1459 
898 1479 938 1499 958 1018 1539 998 1519 
978 1579 1058 1599 1038 1559 1639 1078 1619 
1098 19 1138 1118 1659 1178 39 1158 59 
79 1218 99 1238 1198 139 1258 119 1278 
1298 1318 159 179 1338 199 1378 219 1358 
239 1398 259 1418 1438 279 319 1478 1458 
299 339 1498 1518 379 359 1538 419 1558 
399 459 439 1598 1578 1618 499 479 1638 
539 18 519 1658 2400 2399 2401 2398 2402 
2405 2403 2404 2407 2409 2406 2408 2411 2413 
2410 2412 2416 2415 2417 2414 2421 2420 2418 
2419 2422 2426 2425 2424 2427 2423 2431 2429 
2430 2428 2433 2432 2434 2435 2439 2436 2437 
2438 2442 2440 2441 2443 2445 2446 2447 2444 
2449 2448 2450 2451 2455 2452 2453 2454 2458 
2456 2459 2457 2463 2461 2460 2462 2466 2467 
2465 2464 2469 2468 2470 2471 2475 2474 2473 
2472 2481 2477 2480 2476 2478 2479 2485 2484 
2483 2482 2488 2487 2486 2489 2493 2492 2490 
2491 2497 2496 2495 2494 2498 2500 2501 2499 
2504 2502 2505 2503 2509 2508 2507 2506 2511 
2510 2513 2512 2516 2514 2515 2517 2519 2518 
2520 2521 2525 2522 2523 2524 2527 2528 2529 
2526 2532 2533 2531 2530 2534 2535 2536 2537 
2538 2539 2542 2543 2540 2541 2544 2545 2546 
2547 2548 2551 2550 2549 2554 2555 2553 2552 
2558 2556 2557 2559 2560 2561 2562 2563 
FIELD FieldData 7
r 3 2798 float
-0.5375 -0.4625 0 -0.5125 -0.4875 0 -0.5125 -0.4625 0 
-0.5375 -0.4875 0 -0.487805 -0.4875 0 -0.463415 -0.4625 0 
-0.487805 -0.4625 0 -0.463415 -0.4875 0 -0.439024 -0.4875 0 
-0.414634 -0.4625 0 -0.439024 -0.4625 0 -0.414634 -0.4875 0 
-0.365854 -0.4625 0 -0.365854 -0.4875 0 -0.390244 -0.4875 0 
-0.390244 -0.4625 0 -0.341463 -0.4875 0 -0.341463 -0.4625 0 
-0.317073 -0.4875 0 -0.317073 -0.4625 0 -0.292683 -0.4875 0 
-0.268293 -0.4875 0 -0.292683 -0.4625 0 -0.268293 -0.4625 0 
-0.219512 -0.4625 0 -0.219512 -0.4875 0 -0.243902 -0.4875 0 
-0.243902 -0.4625 0 -0.170732 -0.4875 0 -0.170732 -0.4625 0 
-0.195122 -0.4625 0 -0.195122 -0.4875 0 -0.146341 -0.4625 0 
-0.146341 -0.4875 0 -0.121951 -0.4625 0 -0.121951 -0.4875 0 
-0.0731707 -0.4625 0 -0.097561 -0.4625 0 -0.097561 -0.4875 0 
-0.0731707 -0.4875 0 -0.0243903 -0.4625 0 -0.0487805 -0.4875 0 
-0.0243903 -0.4875 0 -1.86265e-08 -0.4875 0 -1.86265e-08 -0.4625 0 
-0.0487805 -0.4625 0 0.0243902 -0.4625 0 0.0487805 -0.4875 0 
0.0487805 -0.4625 0 0.0243902 -0.4875 0 0.0731707 -0.4875 0 
0.097561 -0.4625 0 0.097561 -0.4875 0 0.0731707 -0.4625 0 
0.121951 -0.4625 0 0.121951 -0.4875 0 0.146341 -0.4625 0 
0.146341 -0.4875 0 0.170732 -0.4875 0 0.195122 -0.4875 0 
0.170732 -0.4625 0 0.195122 -0.4625 0 0.219512 -0.4625 0 
0.219512 -0.4875 0 0.243902 -0.4625 0 0.243902 -0.4875 0 
0.268293 -0.4875 0 0.292683 -0.4875 0 0.268293 -0.4625 0 
0.292683 -0.4625 0 0.317073 -0.4875 0 0.317073 -0.4625 0 
0.341463 -0.4625 0 0.341463 -0.4875 0 0.390244 -0.4625 0 
0.365854 -0.4625 0 0.365854 -0.4875 0 0.390244 -0.4875 0 
0.414634 -0.4625 0 0.439024 -0.4875 0 0.414634 -0.4875 0 
0.439024 -0.4625 0 0.487805 -0.4875 0 0.487805 -0.4625 0 
0.463415 -0.4875 0 0.463415 -0.4625 0 0.5125 -0.4625 0 
0.5375 -0.4875 0 0.5125 -0.4875 0 0.5375 -0.4625 0 
-0.5375 -0.4375 0 -0.5125 -0.4375 0 -0.5125 -0.4125 0 
-0.5375 -0.4125 0 -0.464717 -0.435281 0 -0.488388 -0.412482 0 
-0.466914 -0.406115 0 -0.487792 -0.437849 0 -0.440973 -0.438375 0 
-0.416675 -0.435925 0 -0.420266 -0.411453 0 -0.444684 -0.41322 0 
-0.394298 -0.437883 0 -0.366691 -0.438269 0 -0.379614 -0.418247 0 
-0.399152 -0.405096 0 -0.350147 -0.41288 0 -0.342527 -0.437273 0 
-0.318529 -0.437205 0 -0.326204 -0.411732 0 -0.302474 -0.41082 0 
-0.279523 -0.41013 0 -0.294965 -0.436853 0 -0.257333 -0.408113 0 
-0.271823 -0.43654 0 -0.204678 -0.436462 0 -0.213482 -0.409567 0 
-0.227332 -0.436469 0 -0.235502 -0.408574 0 -0.249572 -0.435731 0 
-0.191062 -0.409617 0 -0.168482 -0.410821 0 -0.158583 -0.4372 0 
-0.181926 -0.436718 0 -0.122304 -0.411191 0 -0.134933 -0.437195 0 
-0.11138 -0.437171 0 -0.145506 -0.41136 0 -0.0990585 -0.411318 0 
-0.0637102 -0.437668 0 -0.0754561 -0.412119 0 -0.0507748 -0.413857 0 
-0.0877706 -0.437299 0 -0.0387371 -0.438152 0 -0.0133447 -0.438086 0 
-0.0251847 -0.414575 0 0.0115882 -0.437846 0 0.0262368 -0.414546 0 
0.0369778 -0.438293 0 0.000395571 -0.413746 0 0.0630107 -0.43819 0 
0.0800218 -0.41586 0 0.0892288 -0.438449 0 0.0525551 -0.415433 0 
0.131758 -0.413664 0 0.139938 -0.437642 0 0.106202 -0.414597 0 
0.114862 -0.437971 0 0.166468 -0.438331 0 0.189401 -0.416574 0 
0.159713 -0.416564 0 0.193005 -0.438435 0 0.243429 -0.414924 0 
0.246165 -0.438337 0 0.219654 -0.438727 0 0.217537 -0.416185 0 
0.298572 -0.417895 0 0.273935 -0.43931 0 0.270094 -0.417944 0 
0.302157 -0.439152 0 0.327484 -0.41849 0 0.330461 -0.439546 0 
0.383792 -0.416174 0 0.356073 -0.418286 0 0.386061 -0.438487 0 
0.358857 -0.439509 0 0.412507 -0.438894 0 0.411343 -0.416421 0 
0.437927 -0.415828 0 0.438944 -0.438685 0 0.488246 -0.413172 0 
0.464068 -0.437634 0 0.488443 -0.437918 0 0.463739 -0.413214 0 
0.5125 -0.4125 0 0.5375 -0.4375 0 0.5125 -0.4375 0 
0.5375 -0.4125 0 -0.5375 -0.3875 0 -0.5375 -0.3625 0 
-0.5125 -0.3875 0 -0.5125 -0.3625 0 -0.451116 -0.385585 0 
-0.490367 -0.355841 0 -0.489134 -0.386082 0 -0.455184 -0.352545 0 
-0.470713 -0.372885 0 -0.42688 -0.387824 0 -0.408888 -0.372901 0 
-0.4348 -0.362418 0 -0.388123 -0.383548 0 -0.352181 -0.377673 0 
-0.392716 -0.350675 0 -0.372939 -0.363568 0 -0.366364 -0.396651 0 
-0.308962 -0.358879 0 -0.307872 -0.38467 0 -0.331487 -0.387763 0 
-0.331342 -0.359767 0 -0.261803 -0.381214 0 -0.26273 -0.354556 0 
-0.2855 -0.35756 0 -0.284577 -0.383967 0 -0.218341 -0.354546 0 
-0.217545 -0.382221 0 -0.239522 -0.380511 0 -0.240287 -0.352864 0 
-0.173872 -0.356909 0 -0.172298 -0.383825 0 -0.195046 -0.382762 0 
-0.151246 -0.358137 0 -0.196337 -0.355761 0 -0.149552 -0.384999 0 
-0.106006 -0.359173 0 -0.126535 -0.385064 0 -0.103252 -0.385274 0 
-0.128859 -0.358418 0 -0.082333 -0.360715 0 -0.057955 -0.364208 0 
-0.0552714 -0.389195 0 -0.079605 -0.386399 0 -0.0334213 -0.365903 0 
-0.0304524 -0.390651 0 -0.00933085 -0.365131 0 -0.00560582 -0.389902 0 
0.0456182 -0.391915 0 0.0199818 -0.390782 0 0.0156249 -0.367112 0 
0.0417315 -0.368219 0 0.0716403 -0.393639 0 0.0677 -0.370153 0 
0.0927884 -0.367577 0 0.097304 -0.391177 0 0.121885 -0.389719 0 
0.149876 -0.394521 0 0.142602 -0.371867 0 0.117661 -0.364277 0 
0.189308 -0.352695 0 0.170383 -0.375248 0 0.178791 -0.39689 0 
0.197994 -0.37584 0 0.163773 -0.351913 0 0.21343 -0.351047 0 
0.245902 -0.354482 0 0.209055 -0.395237 0 0.226341 -0.371451 0 
0.236784 -0.391656 0 0.290187 -0.396589 0 0.259016 -0.372687 0 
0.26403 -0.394632 0 0.278687 -0.352572 0 0.287284 -0.372841 0 
0.338917 -0.354918 0 0.348708 -0.39773 0 0.340358 -0.377012 0 
0.319249 -0.397863 0 0.312386 -0.376346 0 0.313037 -0.353834 0 
0.396255 -0.354328 0 0.368577 -0.352486 0 0.367269 -0.374106 0 
0.396041 -0.375461 0 0.377109 -0.395155 0 0.436697 -0.393777 0 
0.426322 -0.353857 0 0.407118 -0.395422 0 0.424785 -0.374548 0 
0.462965 -0.389361 0 0.483709 -0.366938 0 0.453232 -0.368702 0 
0.488622 -0.388624 0 0.5125 -0.3625 0 0.5125 -0.3875 0 
0.5375 -0.3625 0 0.5375 -0.3875 0 -0.5375 -0.3375 0 
-0.5375 -0.3125 0 -0.5125 -0.3125 0 -0.5125 -0.3375 0 
-0.454368 -0.321627 0 -0.469368 -0.30348 0 -0.490207 -0.32156 0 
-0.474441 -0.337995 0 -0.41302 -0.314266 0 -0.433405 -0.303295 0 
-0.434415 -0.332542 0 -0.415097 -0.344923 0 -0.393302 -0.323455 0 
-0.353147 -0.315436 0 -0.375131 -0.303841 0 -0.351975 -0.348204 0 
-0.371087 -0.333445 0 -0.333989 -0.329877 0 -0.316953 -0.306952 0 
-0.31157 -0.333295 0 -0.288095 -0.331326 0 -0.265033 -0.328108 0 
-0.293738 -0.305868 0 -0.270163 -0.302578 0 -0.220286 -0.326465 0 
-0.242505 -0.325561 0 -0.198608 -0.327744 0 -0.158972 -0.304205 0 
-0.154206 -0.331067 0 -0.176786 -0.329654 0 -0.18127 -0.301356 0 
-0.136515 -0.303012 0 -0.114227 -0.305356 0 -0.109853 -0.33269 0 
-0.132122 -0.330756 0 -0.0905384 -0.310123 0 -0.0859511 -0.335244 0 
-0.0609385 -0.339283 0 -0.0647486 -0.31497 0 -0.0392666 -0.316368 0 
-0.0157931 -0.31262 0 -0.012462 -0.339196 0 -0.0361401 -0.340984 0 