# vtk DataFile Version 4.0
vtk output
ASCII
DATASET POLYDATA
FIELD FieldData 4
domain 1 3 string
domain_min:-20|-15
domain_max:20|15
cell_size:0.05

variables 1 2 string
dt:0.000372678
T:2.24377

constants 1 10 string
xsize:2
ysize:1
csize:0.05
dx:0.0238095
h:0.025
rho0:1000
mass:0.566894
g:1|0
c:13.4164
CFL:0.2

functions 1 8 string
time:T=(T+dt)
continuity:rho_dot=((-(rho*sph_D00(v,mass,rho,Wp52220)))+(((0.1*c)*h)*sph_L00(rho,mass,rho,Wp52220)))
irho:rho=(rho+int1((rho_dot,dt))
EOS:p=(((c^2)*(rho-rho0))+10000)
euler:a=if((gid,(0*v),(((-((1/rho)*sph_G11(p,mass,rho,Wp52220)))+(0.01*sph_L00(v,mass,rho,Wp52220)))+g))
vel:v=(v+int1((a,dt))
pos:r=(r+int1((v,dt))
new_dt:dt=(CFL*min((sqrt(((h/fmax(magnitude((a)))),(h/c)))

POINTS 2798 float
-0.5125 -0.4625 0 -0.5375 -0.4875 0 -0.5375 -0.4625 0 
-0.5125 -0.4875 0 -0.487805 -0.4875 0 -0.487805 -0.4625 0 
-0.463415 -0.4875 0 -0.463415 -0.4625 0 -0.439024 -0.4875 0 
-0.414634 -0.4625 0 -0.414634 -0.4875 0 -0.439024 -0.4625 0 
-0.390244 -0.4625 0 -0.365854 -0.4875 0 -0.390244 -0.4875 0 
-0.365854 -0.4625 0 -0.317073 -0.4625 0 -0.317073 -0.4875 0 
-0.341463 -0.4875 0 -0.341463 -0.4625 0 -0.268293 -0.4625 0 
-0.292683 -0.4875 0 -0.268293 -0.4875 0 -0.292683 -0.4625 0 
-0.219512 -0.4625 0 -0.219512 -0.4875 0 -0.243902 -0.4625 0 
-0.243902 -0.4875 0 -0.170732 -0.4875 0 -0.195122 -0.4875 0 
-0.195122 -0.4625 0 -0.170732 -0.4625 0 -0.121951 -0.4875 0 
-0.146341 -0.4625 0 -0.146341 -0.4875 0 -0.121951 -0.4625 0 
-0.0731707 -0.4875 0 -0.097561 -0.4625 0 -0.097561 -0.4875 0 
-0.0731707 -0.4625 0 -0.0243903 -0.4625 0 -1.86265e-08 -0.4875 0 
-0.0487805 -0.4625 0 -0.0243903 -0.4875 0 -1.86265e-08 -0.4625 0 
-0.0487805 -0.4875 0 0.0487805 -0.4875 0 0.0243902 -0.4875 0 
0.0243902 -0.4625 0 0.0487805 -0.4625 0 0.097561 -0.4625 0 
0.0731707 -0.4875 0 0.0731707 -0.4625 0 0.097561 -0.4875 0 
0.146341 -0.4875 0 0.121951 -0.4625 0 0.146341 -0.4625 0 
0.121951 -0.4875 0 0.195122 -0.4625 0 0.170732 -0.4625 0 
0.195122 -0.4875 0 0.170732 -0.4875 0 0.243902 -0.4625 0 
0.243902 -0.4875 0 0.219512 -0.4875 0 0.219512 -0.4625 0 
0.292683 -0.4625 0 0.268293 -0.4875 0 0.292683 -0.4875 0 
0.268293 -0.4625 0 0.341463 -0.4875 0 0.341463 -0.4625 0 
0.317073 -0.4875 0 0.317073 -0.4625 0 0.390244 -0.4625 0 
0.365854 -0.4875 0 0.390244 -0.4875 0 0.365854 -0.4625 0 
0.439024 -0.4625 0 0.414634 -0.4875 0 0.439024 -0.4875 0 
0.414634 -0.4625 0 0.463415 -0.4875 0 0.487805 -0.4625 0 
0.487805 -0.4875 0 0.463415 -0.4625 0 0.5375 -0.4875 0 
0.5125 -0.4625 0 0.5125 -0.4875 0 0.5375 -0.4625 0 
-0.5125 -0.4375 0 -0.5125 -0.4125 0 -0.5375 -0.4125 0 
-0.5375 -0.4375 0 -0.487814 -0.437047 0 -0.488463 -0.412502 0 
-0.465103 -0.436293 0 -0.454114 -0.414348 0 -0.440521 -0.436981 0 
-0.425714 -0.412031 0 -0.417245 -0.437289 0 -0.401551 -0.412268 0 
-0.353773 -0.411414 0 -0.393187 -0.437069 0 -0.377453 -0.410727 0 
-0.36975 -0.436818 0 -0.346119 -0.436739 0 -0.308153 -0.418645 0 
-0.331719 -0.409152 0 -0.322922 -0.438022 0 -0.254527 -0.438738 0 
-0.294809 -0.439524 0 -0.289505 -0.404366 0 -0.268326 -0.402743 0 
-0.27484 -0.430328 0 -0.230432 -0.435702 0 -0.203391 -0.412385 0 
-0.247499 -0.412821 0 -0.225029 -0.407713 0 -0.207696 -0.437867 0 
-0.184885 -0.435173 0 -0.173812 -0.411546 0 -0.161834 -0.438039 0 
-0.15121 -0.409773 0 -0.139602 -0.43505 0 -0.106453 -0.409667 0 
-0.117982 -0.436436 0 -0.128153 -0.407691 0 -0.0600143 -0.409513 0 
-0.0956307 -0.436369 0 -0.0829106 -0.410878 0 -0.0728775 -0.43687 0 
-0.0505768 -0.436299 0 -0.00555273 -0.435865 0 -0.0368338 -0.410943 0 
-0.0141175 -0.409145 0 -0.0277377 -0.437064 0 0.0316097 -0.412151 0 
0.0398782 -0.437298 0 0.0165469 -0.43667 0 0.00815925 -0.409157 0 
0.086089 -0.43676 0 0.062983 -0.436804 0 0.0797738 -0.411106 0 
0.05572 -0.411076 0 0.127476 -0.412449 0 0.132326 -0.436949 0 
0.108874 -0.437036 0 0.103692 -0.410379 0 0.155888 -0.4376 0 
0.180264 -0.437128 0 0.154746 -0.413337 0 0.179814 -0.412341 0 
0.207074 -0.415555 0 0.2302 -0.438983 0 0.239022 -0.419449 0 
0.204578 -0.437798 0 0.272008 -0.41848 0 0.287008 -0.438929 0 
0.259039 -0.438982 0 0.294239 -0.410343 0 0.253708 -0.401188 0 
0.319325 -0.411097 0 0.33266 -0.438194 0 0.309575 -0.435122 0 
0.343449 -0.41447 0 0.370157 -0.418166 0 0.399321 -0.419957 0 
0.386189 -0.43967 0 0.358309 -0.438746 0 0.439502 -0.438123 0 
0.427767 -0.41549 0 0.41449 -0.438937 0 0.489371 -0.438383 0 
0.463677 -0.43773 0 0.482534 -0.41705 0 0.454225 -0.414102 0 
0.5125 -0.4125 0 0.5375 -0.4375 0 0.5125 -0.4375 0 
0.5375 -0.4125 0 -0.5375 -0.3875 0 -0.5125 -0.3875 0 
-0.5375 -0.3625 0 -0.5125 -0.3625 0 -0.470653 -0.398654 0 
-0.477705 -0.363593 0 -0.490584 -0.382425 0 -0.456782 -0.377455 0 
-0.439343 -0.358718 0 -0.421694 -0.375123 0 -0.437932 -0.39319 0 
-0.403352 -0.388643 0 -0.379842 -0.384161 0 -0.351051 -0.358478 0 
-0.399469 -0.360355 0 -0.374455 -0.359611 0 -0.356185 -0.386448 0 
-0.334569 -0.378313 0 -0.316005 -0.360803 0 -0.314385 -0.391249 0 
-0.253186 -0.382809 0 -0.274772 -0.372236 0 -0.295165 -0.376942 0 
-0.252477 -0.355479 0 -0.20826 -0.379513 0 -0.229074 -0.35763 0 
-0.230525 -0.383562 0 -0.154415 -0.355987 0 -0.195561 -0.359444 0 
-0.174349 -0.373703 0 -0.188435 -0.393512 0 -0.154844 -0.385052 0 
-0.131686 -0.35455 0 -0.106954 -0.357104 0 -0.10933 -0.382096 0 
-0.132243 -0.380496 0 -0.0862389 -0.385752 0 -0.0551753 -0.35765 0 
-0.0614817 -0.383406 0 -0.0806901 -0.361968 0 -0.0320445 -0.357419 0 
-0.0385368 -0.38436 0 -0.00928443 -0.35475 0 -0.015881 -0.382362 0 
0.0131669 -0.354244 0 0.00628569 -0.381312 0 0.0343805 -0.362276 0 
0.0287871 -0.386745 0 0.0791481 -0.386745 0 0.0620265 -0.364098 0 
0.0907608 -0.365552 0 0.0532472 -0.386373 0 0.137275 -0.391812 0 
0.124189 -0.37179 0 0.110995 -0.351578 0 0.106221 -0.387114 0 
0.148289 -0.365279 0 0.192596 -0.35411 0 0.192313 -0.392108 0 
0.177525 -0.371365 0 0.162469 -0.388983 0 0.221742 -0.399059 0 
0.218386 -0.352364 0 0.209938 -0.375504 0 0.23825 -0.381839 0 
0.241841 -0.360907 0 0.291014 -0.36107 0 0.271797 -0.388085 0 
0.296496 -0.386798 0 0.267314 -0.365728 0 0.342132 -0.36989 0 
0.315364 -0.364476 0 0.322714 -0.388161 0 0.395802 -0.35659 0 
0.37634 -0.374008 0 0.375313 -0.396021 0 0.350361 -0.391806 0 
0.360472 -0.356789 0 0.422955 -0.35111 0 0.429511 -0.393936 0 
0.401301 -0.398542 0 0.405939 -0.376993 0 0.432678 -0.371246 0 
0.486924 -0.397463 0 0.481024 -0.356514 0 0.458945 -0.392959 0 
0.488342 -0.375983 0 0.457803 -0.371918 0 0.5125 -0.3625 0 
0.5375 -0.3875 0 0.5125 -0.3875 0 0.5375 -0.3625 0 
-0.5375 -0.3375 0 -0.5375 -0.3125 0 -0.5125 -0.3375 0 
-0.5125 -0.3125 0 -0.491043 -0.344336 0 -0.452265 -0.310683 0 
-0.490368 -0.31151 0 -0.472848 -0.326779 0 -0.458715 -0.345462 0 
-0.417453 -0.344509 0 -0.437672 -0.32947 0 -0.40326 -0.323731 0 
-0.421538 -0.309323 0 -0.391212 -0.300384 0 -0.358102 -0.332953 0 
-0.384384 -0.336864 0 -0.371538 -0.312994 0 -0.313231 -0.324923 0 
-0.332116 -0.34295 0 -0.3374 -0.317209 0 -0.27106 -0.320994 0 
-0.292884 -0.314525 0 -0.276535 -0.345657 0 -0.298086 -0.345709 0 
-0.212459 -0.342237 0 -0.248516 -0.331661 0 -0.227317 -0.323139 0 
-0.246813 -0.303988 0 -0.208103 -0.308318 0 -0.151927 -0.330243 0 
-0.175903 -0.34389 0 -0.169683 -0.313737 0 -0.191912 -0.326301 0 
-0.123032 -0.332293 0 -0.103433 -0.316272 0 -0.136374 -0.311306 0 
-0.0543337 -0.311836 0 -0.0779448 -0.311763 0 -0.0683099 -0.33675 0 
-0.0930119 -0.337742 0 -0.0416057 -0.331834 0 -0.0179857 -0.329755 0 
-0.0239896 -0.306336 0 0.0277016 -0.329307 0 0.04798 -0.342092 0 
0.0452126 -0.311057 0 0.00574536 -0.327323 0 0.00193665 -0.302646 0 
0.0880568 -0.309113 0 0.0978464 -0.331432 0 0.0768057 -0.344141 0 
0.0656643 -0.322076 0 0.138537 -0.3038 0 0.133782 -0.342288 0 
0.120456 -0.320489 0 0.197337 -0.307907 0 0.163117 -0.347748 0 
0.181632 -0.331587 0 0.171002 -0.309285 0 0.151319 -0.324991 0 
0.238101 -0.334158 0 0.226271 -0.312047 0 0.20825 -0.32995 0 
0.295357 -0.339037 0 0.262361 -0.342578 0 0.25218 -0.312238 0 
0.275117 -0.324832 0 0.287489 -0.305602 0 0.326621 -0.34552 0 
0.335698 -0.316913 0 0.311736 -0.323784 0 0.349359 -0.335653 0 
0.371729 -0.318929 0 0.356714 -0.301667 0 0.379331 -0.339221 0 
0.436261 -0.33213 0 0.429202 -0.311138 0 0.401139 -0.31151 0 
0.405897 -0.331986 0 0.454911 -0.348842 0 0.464174 -0.326713 0 
0.45511 -0.306063 0 0.487273 -0.313082 0 0.489286 -0.336983 0 
0.5125 -0.3125 0 0.5125 -0.3375 0 0.5375 -0.3125 0 
0.5375 -0.3375 0 -0.5375 -0.2625 0 -0.5125 -0.2625 0 
-0.5125 -0.2875 0 -0.5375 -0.2875 0 -0.470589 -0.295231 0 
-0.490435 -0.280811 0 -0.453435 -0.276239 0 -0.473693 -0.262615 0 
-0.444363 -0.253284 0 -0.434911 -0.289893 0 -0.407985 -0.284499 0 
-0.422684 -0.265077 0 -0.374453 -0.280696 0 -0.353242 -0.297362 0 
-0.371304 -0.251558 0 -0.392272 -0.264182 0 -0.350528 -0.272835 0 
-0.304826 -0.262781 0 -0.325736 -0.295924 0 -0.326811 -0.271163 0 
-0.303143 -0.292915 0 -0.26481 -0.26116 0 -0.284393 -0.278122 0 
-0.269234 -0.295275 0 -0.225377 -0.263616 0 -0.226434 -0.291152 0 
-0.2041 -0.278536 0 -0.248434 -0.275815 0 -0.169824 -0.250776 0 
-0.18619 -0.295217 0 -0.193367 -0.258282 0 -0.17066 -0.276318 0 
-0.153981 -0.293564 0 -0.106616 -0.27216 0 -0.134072 -0.279674 0 
-0.147537 -0.259702 0 -0.123136 -0.25363 0 -0.115816 -0.2965 0 
-0.0866641 -0.259325 0 -0.0665471 -0.282945 0 -0.062276 -0.25914 0 
-0.0886408 -0.289704 0 -0.0432624 -0.290871 0 -0.0371761 -0.267155 0 
-0.0152676 -0.28177 0 -0.0181425 -0.252955 0 0.0057044 -0.27347 0 
0.0239951 -0.298708 0 0.0290162 -0.272594 0 0.0726079 -0.292843 0 
0.0829528 -0.272496 0 0.0504308 -0.286376 0 0.0550637 -0.262705 0 
0.144006 -0.261488 0 0.131223 -0.280985 0 0.105896 -0.27507 0 
0.121147 -0.252035 0 0.108827 -0.298068 0 0.188484 -0.285775 0 
0.168492 -0.267205 0 0.19702 -0.263559 0 0.159425 -0.28888 0 
0.220452 -0.264827 0 0.243474 -0.261549 0 0.216394 -0.289379 0 
0.241627 -0.287644 0 0.29203 -0.277778 0 0.267025 -0.291891 0 
0.266825 -0.267621 0 0.285821 -0.252444 0 0.341846 -0.269855 0 
0.314447 -0.269968 0 0.309477 -0.29826 0 0.332265 -0.291747 0 
[...]
POINT_DATA 2798
SCALARS id float
LOOKUP_TABLE default
2621 2600 2601 2620 2640 2641 2642 2643 2644 
2647 2646 2645 2649 2650 2648 2651 2655 2654 
2652 2653 2659 2656 2658 2657 2663 2662 2661 
2660 2666 2664 2665 2667 2670 2669 2668 2671 
2674 2673 2672 2675 2679 2680 2677 2678 2681 
2676 2684 2682 2683 2685 2689 2686 2687 2688 
2692 2691 2693 2690 2697 2695 2696 2694 2701 
2700 2698 2699 2705 2702 2704 2703 2708 2709 
2706 2707 2713 2710 2712 2711 2717 2714 2716 
2715 2718 2721 2720 2719 2742 2723 2722 2743 
2622 2623 2603 2602 1660 1697 1678 1714 1732 
1823 1786 1840 1949 1804 1913 1858 1876 1912 
1967 1894 1984 1930 2093 2111 1948 2020 2165 
2129 2147 2038 2056 2183 2074 2201 2092 2237 
2110 2219 2291 2128 2218 2146 2164 2200 2310 
2329 2182 2330 2254 2236 2328 2290 2272 2347 
2331 2349 2308 2309 2350 2327 2326 2365 2366 
2364 2348 2368 2346 2363 2344 2345 2370 2372 
2383 2380 2362 2371 2390 2367 2382 2386 2389 
280 2381 2384 2385 2387 2388 2725 2744 2724 
2745 2604 2624 2605 2625 1696 1715 1661 1750 
1805 1841 1768 1822 1877 1986 1859 1914 1931 
1985 2003 1966 2130 2112 2057 2131 2166 2167 
2148 2239 2203 2202 2184 2220 2257 2275 2256 
2238 2255 2312 2273 2274 2315 2311 2300 2313 
2283 2332 2317 2316 2334 2336 2335 2333 2351 
2353 2248 2352 2318 60 2369 2284 2354 2337 
20 1461 1620 1460 1201 340 0 1122 1101 
1281 2267 1221 2213 2231 2090 1420 1121 2373 
2391 1341 1183 2355 1081 2301 320 1321 2727 
2746 2726 2747 2606 2607 2626 2627 1679 1806 
1662 1733 1787 1842 1824 1860 1843 1896 1950 
1895 1932 2021 2004 2022 2094 2039 2075 2002 
2185 2149 2186 2113 2204 2258 2221 2240 2222 
2276 2294 2259 2296 2295 2292 2293 2314 2282 
2299 2125 2230 2018 2247 2265 1441 2142 2266 
21 1521 1875 1362 1301 2195 100 1561 1481 
1541 1928 1161 1540 1181 1820 1261 1580 1141 
1040 1241 1520 1766 1749 1400 1729 1713 1784 
1440 1001 1873 1712 1300 1767 2729 2728 2749 
2748 2609 2629 2628 2608 1716 1698 1769 1734 
1788 1825 1861 1862 1933 2005 1968 1878 2023 
2059 2040 2041 2058 2096 2077 2076 2132 2150 
2168 2095 2207 2223 2206 2224 2241 2260 2242 
2208 2225 2277 2279 2297 2280 2278 2298 2246 
2281 2263 2264 2212 2229 1522 1581 1929 2072 
1946 140 1838 1911 120 40 180 1 1361 
1731 1963 1600 1910 1892 160 1837 462 762 
1942 1802 900 820 1853 1120 1909 542 1560 
1180 1819 1675 1891 1818 2730 2751 2750 2731 
2611 2631 2630 2610 1680 1752 1751 1770 1880 
1879 1807 1844 1915 1897 1951 1969 2024 1987 
2060 2042 2097 2079 2061 2080 2078 2169 2115 
2098 2114 2187 2190 2205 2133 2243 2189 2191 
2188 2156 2174 2261 2244 2245 2209 2226 2262 
2194 2054 2227 2211 2193 2228 2159 2177 2124 
1821 1893 2176 2035 2053 1839 2107 1803 2070 
1981 1982 1998 1857 1964 2034 1980 2017 1926 
1856 1693 1979 2016 1785 1908 1874 1890 1962 
1783 1709 1997 80 2325 1945 2145 1080 1676 
1220 2733 2732 2753 2752 2633 2612 2632 2613 
1735 1789 1826 1663 1717 1881 1935 1898 1916 
1934 1970 1971 1953 1952 2043 2006 2025 1988 
2062 2063 2045 2046 2081 2099 2028 2064 2029 
2116 2117 2170 2172 2151 2152 2140 2173 2155 
2136 2171 2123 2139 2154 2192 2153 2210 2089 
2158 2175 2157 2052 2141 2036 2087 1689 2122 
2068 2071 2105 2000 2085 2103 2106 2050 2015 
2104 2088 2102 2033 2051 2049 2032 1978 2069 
2086 1961 1999 2067 2306 1927 1889 2288 2754 
2735 2755 2734 2634 2615 2635 2614 1699 1790 
1771 1863 1753 1899 1900 1917 1918 1936 1989 
1954 1972 2007 2008 2026 1990 1991 2044 1974 
2027 2010 1992 1924 2009 1993 1977 2047 1958 
1905 2135 2134 2082 1959 2100 2030 1887 2065 
1835 2012 1941 2011 2101 1816 2120 1852 2083 
2138 2048 2137 2119 2121 1925 1705 1960 1777 
1851 1780 2066 1723 2118 1797 2013 1742 2014 
1708 2084 1944 1673 2234 1745 1906 2357 1100 
1746 1814 2031 1710 1996 1140 1762 2757 2737 
2756 2736 2617 2616 2636 2637 1718 1808 1681 
1883 1919 1901 1864 1882 1902 1937 1737 1955 
1920 1885 1938 1973 1956 1829 1884 1903 220 
1868 1957 1939 1975 1792 1976 1921 1940 1849 
1831 1848 1817 1667 1922 1684 1923 1811 1904 
1830 1870 1813 1869 1871 1794 1758 1793 1781 
1711 1834 1722 1994 1727 1850 1995 1886 1798 
1741 1779 1795 1775 1776 1740 2250 2215 1670 
1142 1815 1704 404 1061 2320 2143 2303 1282 
1283 1799 2232 2251 1674 1695 1760 1888 2323 
2739 2758 2759 2738 2566 2564 2567 2565 2568 
2570 2569 2571 2572 2574 2575 2573 2576 2577 
2578 2579 2581 2580 2583 2582 2586 2587 2584 
2585 2588 2589 2590 2591 2594 2593 2595 2592 
2596 2597 2599 2598 2639 2618 2638 2619 1700 
1736 1772 1845 1827 1846 1664 1719 1809 1665 
1701 1865 1682 1041 1320 1683 1754 1242 1828 
1866 482 1847 1810 1720 1738 1601 1791 1867 
1102 1773 822 1702 1692 1755 1062 2160 1854 
263 1782 541 1669 1703 420 2285 1401 1021 
1739 861 1262 1685 1677 1668 1812 260 2319 
2338 1832 1222 1721 1774 2374 980 2392 1757 
2356 682 920 641 124 1756 1686 843 901 
264 321 123 783 442 240 742 463 940 
2377 2740 2741 2761 2760 2765 2763 2764 2762 
2769 2767 2768 2766 2771 2772 2770 2773 2776 
2777 2774 2775 2779 2780 2778 2781 2782 2785 
2784 2783 2786 2789 2787 2788 2793 2790 2792 
2791 2794 2796 2795 2797 803 2358 640 461 
1303 1688 41 1672 2287 1761 1542 1044 2019 
1382 1123 2199 181 763 2341 1223 1020 163 
983 761 744 806 2339 2037 1480 2378 2270 
1855 2360 2304 520 2307 1690 780 1730 1500 
2321 2180 1765 1836 2055 341 840 1263 162 
1380 1544 1105 1747 720 1801 2217 1800 680 
1200 2342 2197 421 1564 802 223 460 2109 
1666 200 1748 2091 1260 141 1706 1383 862 
881 941 660 561 1907 261 921 22 1385 
1764 61 1643 981 860 281 2269 363 1364 
500 1202 620 1694 701 1240 1340 402 362 
101 2181 540 423 2178 700 501 381 600 
1605 302 122 441 521 241 721 84 1000 
2249 401 1691 681 361 2214 343 403 382 
1543 1726 1182 2397 2361 1778 2359 1943 2376 
1671 1744 1728 883 1725 1947 903 800 1022 
1759 1763 1043 2375 2396 1184 601 2252 1743 
2343 1582 2394 961 2271 804 1421 1724 841 
1003 2302 741 602 2179 305 1243 823 325 
923 2216 1162 201 622 2305 444 643 702 
161 1063 503 366 884 1204 963 2235 502 
2253 2161 1185 1042 625 2393 902 982 844 
2163 623 2233 1163 464 1422 2395 764 1144 
1060 2289 2108 984 1483 605 904 1004 1145 
1302 724 1045 1124 1064 845 1983 1602 964 
1143 1641 1872 1264 1363 360 81 1501 1224 
42 2324 143 2268 480 2340 83 1344 1443 
1404 1463 1563 1066 182 1225 1403 3 560 
1424 221 2127 1087 1423 1085 481 104 1360 
43 2379 1160 1280 422 2286 2322 2001 1304 
1227 1365 121 1604 380 4 400 1525 1965 
103 102 63 440 1325 1585 262 62 1286 
1485 801 740 282 722 621 105 1523 224 
2126 2198 1796 760 301 242 962 323 703 
304 1342 1502 222 661 1402 781 1833 1023 
1707 960 1322 1621 922 1687 723 880 1381 
364 245 582 522 342 344 324 284 165 
322 86 243 443 1203 583 66 1082 225 
563 821 285 942 186 147 1002 662 683 
365 581 483 405 543 286 642 562 864 
385 1103 863 664 1083 943 663 1640 684 
544 523 743 603 307 882 2196 786 825 
704 824 300 484 665 604 766 842 566 
705 584 347 564 626 546 1024 785 745 
506 545 784 805 746 725 1106 646 924 
765 687 905 1482 1086 925 787 1065 985 
1104 1164 945 887 1562 1025 2162 1244 907 
1125 1442 848 1343 868 965 849 986 1384 
847 1186 1462 1503 1345 967 1366 1006 23 
1323 1067 1265 987 1005 1126 1088 1007 1207 
1524 1644 1603 1642 1622 2144 82 1565 1346 
1187 1504 1623 1266 1425 2 1584 6 1505 
1405 1406 144 1464 44 1583 1267 85 5 
283 1466 580 25 27 1645 383 26 203 
184 782 1368 1547 1546 45 64 1625 1586 
1487 244 1567 1428 1506 1566 183 1468 1448 
1527 65 46 1526 204 303 1627 166 1647 
202 164 1607 185 146 47 7 205 67 
125 206 226 345 126 266 167 424 265 
384 326 187 227 246 306 386 287 208 
346 247 624 168 209 228 189 229 327 
149 565 267 504 485 644 288 268 645 
524 585 446 425 526 505 465 525 466 
685 486 426 547 487 427 467 507 586 
606 666 686 527 866 826 865 885 1084 
944 807 886 906 867 788 767 827 727 
707 846 668 688 728 628 748 1046 966 
1047 888 1165 869 829 926 946 1205 948 
1026 947 1226 908 927 928 1027 2073 1206 
1285 1245 1128 1284 1545 1127 1246 1324 1109 
1049 1167 1305 142 1148 1228 1208 1465 1444 
1426 1247 1387 1367 1484 1624 1446 1486 24 
1307 1248 1445 1326 1268 1327 1407 1427 1328 
1288 1348 1467 1388 1447 1329 1309 1409 1349 
1369 1408 1488 1626 1646 1507 1606 1548 1587 
1508 1528 1588 1529 1509 1568 1569 1628 1608 
1549 8 1589 87 1648 145 1649 106 28 
127 49 88 48 29 107 148 9 68 
207 69 89 108 128 188 129 109 70 
248 169 170 150 190 210 249 151 171 
406 269 230 289 308 328 250 309 407 
329 348 445 387 447 368 367 409 488 
468 448 408 607 567 706 469 568 587 
627 647 726 549 747 588 529 667 569 
608 589 648 590 629 709 689 669 649 
708 729 670 768 671 690 808 828 749 
889 769 850 789 830 870 809 890 968 
909 851 891 1146 1107 1068 910 1166 1108 
1028 1008 1089 1009 1048 1069 1090 1010 1147 
1029 1209 1050 1129 1188 1030 1110 1149 1130 
1306 1386 1168 1287 1347 1229 1111 1189 1169 
1150 1230 1190 1210 1170 1211 1289 1249 1308 
1269 1250 1290 1310 1270 1291 1330 1350 1311 
1331 1429 1370 1449 1389 1469 1489 1410 1430 
1450 1490 1470 1471 1491 1510 1451 1530 1550 
1531 1609 1511 1571 1629 1570 1590 1551 1611 
1591 1610 1630 1631 1651 1632 1650 50 11 
10 31 30 51 91 90 71 131 130 
111 110 132 152 133 153 173 191 172 
211 270 192 232 212 231 290 251 271 
310 330 291 369 388 349 350 370 389 
428 429 390 410 449 411 430 508 489 
450 470 490 528 509 548 511 550 510 
491 512 530 570 551 609 591 610 571 
611 631 630 650 652 691 672 651 730 
731 710 711 771 750 751 770 810 790 
791 811 892 988 852 831 871 929 949 
930 911 970 989 969 951 991 971 950 
990 1031 1012 1011 992 1070 1051 1091 1071 
1112 1092 1131 1093 1134 1151 1133 1132 1152 
1171 1191 1172 1192 1231 1233 1213 1212 1252 
1251 1272 1232 1271 1292 1313 1293 1312 1332 
1333 1351 1372 1371 1391 1411 1352 1390 1431 
1432 1412 1453 1472 1492 1452 1473 1513 1493 
1512 1532 1553 1552 1533 1593 1592 1612 1572 
1573 1613 1653 1633 12 1652 13 53 52 
32 72 33 73 92 112 93 134 175 
154 113 155 194 174 193 214 254 213 
253 252 233 234 272 293 292 312 273 
331 311 332 371 372 351 352 391 392 
412 431 432 451 452 471 473 492 493 
472 513 532 552 531 592 572 573 553 
593 613 633 632 612 674 673 653 692 
733 732 712 713 693 752 773 772 753 
792 793 813 812 833 832 853 872 893 
894 874 873 931 912 913 933 914 932 
952 973 953 972 1034 993 1013 1033 1032 
1053 1054 1074 1052 1113 1073 1094 1072 1235 
1173 1174 1153 1275 1234 1295 1193 1255 1315 
1335 1274 1254 1375 1253 1355 1273 1294 1314 
1395 1334 1394 1435 1374 1353 1415 1354 1414 
1393 1392 1373 1434 1475 1413 1433 1474 1454 
1515 1495 1555 1514 1494 1535 1575 1534 1595 
1554 1615 1594 1574 1635 1614 15 1654 35 
1634 1655 55 14 75 34 54 115 95 
74 94 176 156 114 196 276 135 215 
235 275 195 296 295 315 314 255 354 
374 294 274 333 313 353 395 415 394 
414 373 434 435 455 393 413 475 454 
433 474 453 515 495 514 494 534 555 
595 533 575 554 574 594 635 615 675 
634 655 614 654 695 735 715 714 755 
694 775 815 795 754 734 814 794 835 
896 774 834 854 855 975 895 955 875 
995 915 1015 934 954 974 1055 1035 1075 
1095 1014 994 1155 1136 1216 1175 1135 1114 
1154 1194 1115 1637 1336 1356 1214 1657 1396 
1376 17 37 1416 1436 57 1476 77 1456 
97 137 1496 117 1516 177 157 1536 1455 
1556 197 217 1616 1596 1576 237 277 1636 
317 297 1656 36 16 337 56 397 357 
96 76 437 417 116 257 136 376 457 
236 497 216 477 517 256 537 377 557 
316 336 577 617 356 335 597 657 637 
677 355 334 697 396 375 416 436 737 
456 717 797 777 476 757 817 837 536 
496 516 877 535 857 596 917 897 576 
556 616 957 636 937 656 997 676 977 
1017 1057 696 716 1037 736 1097 756 1077 
776 1117 1137 796 856 816 836 1177 1237 
876 936 1217 1257 976 1297 956 1277 1317 
1016 1036 996 1337 916 1357 1076 935 1056 
1377 1096 1397 1417 1116 1437 1457 1157 1156 
1477 1196 1176 1497 1517 1236 1537 1215 1577 
1256 1276 1557 1195 1597 1617 1316 1296 599 
738 619 718 778 758 659 639 679 798 
699 818 858 739 719 838 759 898 779 
878 799 819 918 938 839 879 859 958 
978 998 899 919 1018 939 1058 1038 959 
979 1098 999 1078 1118 1039 1138 1019 1158 
1079 1059 1178 1119 1099 1198 1218 1139 1238 
1179 1258 1159 1298 1219 1199 1278 1318 1239 
1338 1259 1358 1279 1378 1299 1398 1418 1438 
1339 1319 1359 1399 1458 1478 1379 1498 1518 
1419 1439 1479 1538 1459 1558 1578 1499 1598 
1618 1519 1638 1658 1559 1539 1579 18 1599 
38 1619 58 1659 98 1639 78 39 118 
138 19 158 178 59 79 119 218 99 
198 238 159 139 278 258 1197 318 179 
298 199 239 338 219 358 398 378 259 
279 418 438 299 458 339 319 478 379 
359 518 498 538 558 419 399 578 598 
459 439 618 479 499 658 539 519 638 
678 698 579 559 2401 2400 2399 2398 2405 
2404 2402 2403 2409 2408 2407 2406 2410 2411 
2412 2413 2416 2414 2417 2415 2420 2419 2418 
2421 2422 2426 2423 2427 2424 2425 2431 2430 
2429 2428 2432 2433 2434 2435 2439 2437 2438 
2436 2443 2442 2441 2440 2444 2445 2446 2447 
2450 2448 2449 2451 2455 2453 2452 2454 2459 
2456 2457 2458 2461 2462 2460 2463 2464 2467 
2465 2466 2469 2468 2471 2470 2473 2472 2474 
2475 2477 2476 2480 2481 2479 2478 2482 2483 
2484 2485 2488 2489 2486 2487 2492 2493 2491 
2490 2497 2496 2495 2494 2498 2499 2501 2500 
2504 2505 2503 2502 2507 2506 2508 2509 2511 
2510 2513 2512 2514 2515 2516 2517 2519 2518 
2521 2520 2525 2522 2523 2524 2527 2526 2528 
2529 2530 2531 2532 2533 2534 2535 2536 2537 
2538 2539 2542 2541 2543 2540 2547 2546 2544 
2545 2548 2549 2550 2551 2553 2554 2555 2552 
2558 2556 2557 2559 2560 2561 2562 2563 
FIELD FieldData 7
r 3 2798 float
-0.5125 -0.4625 0 -0.5375 -0.4875 0 -0.5375 -0.4625 0 
-0.5125 -0.4875 0 -0.487805 -0.4875 0 -0.487805 -0.4625 0 
-0.463415 -0.4875 0 -0.463415 -0.4625 0 -0.439024 -0.4875 0 
-0.414634 -0.4625 0 -0.414634 -0.4875 0 -0.439024 -0.4625 0 
-0.390244 -0.4625 0 -0.365854 -0.4875 0 -0.390244 -0.4875 0 
-0.365854 -0.4625 0 -0.317073 -0.4625 0 -0.317073 -0.4875 0 
-0.341463 -0.4875 0 -0.341463 -0.4625 0 -0.268293 -0.4625 0 
-0.292683 -0.4875 0 -0.268293 -0.4875 0 -0.292683 -0.4625 0 
-0.219512 -0.4625 0 -0.219512 -0.4875 0 -0.243902 -0.4625 0 
-0.243902 -0.4875 0 -0.170732 -0.4875 0 -0.195122 -0.4875 0 
-0.195122 -0.4625 0 -0.170732 -0.4625 0 -0.121951 -0.4875 0 
-0.146341 -0.4625 0 -0.146341 -0.4875 0 -0.121951 -0.4625 0 
-0.0731707 -0.4875 0 -0.097561 -0.4625 0 -0.097561 -0.4875 0 
-0.0731707 -0.4625 0 -0.0243903 -0.4625 0 -1.86265e-08 -0.4875 0 
-0.0487805 -0.4625 0 -0.0243903 -0.4875 0 -1.86265e-08 -0.4625 0 
-0.0487805 -0.4875 0 0.0487805 -0.4875 0 0.0243902 -0.4875 0 
0.0243902 -0.4625 0 0.0487805 -0.4625 0 0.097561 -0.4625 0 
0.0731707 -0.4875 0 0.0731707 -0.4625 0 0.097561 -0.4875 0 
0.146341 -0.4875 0 0.121951 -0.4625 0 0.146341 -0.4625 0 
0.121951 -0.4875 0 0.195122 -0.4625 0 0.170732 -0.4625 0 
0.195122 -0.4875 0 0.170732 -0.4875 0 0.243902 -0.4625 0 
0.243902 -0.4875 0 0.219512 -0.4875 0 0.219512 -0.4625 0 
0.292683 -0.4625 0 0.268293 -0.4875 0 0.292683 -0.4875 0 
0.268293 -0.4625 0 0.341463 -0.4875 0 0.341463 -0.4625 0 
0.317073 -0.4875 0 0.317073 -0.4625 0 0.390244 -0.4625 0 
0.365854 -0.4875 0 0.390244 -0.4875 0 0.365854 -0.4625 0 
0.439024 -0.4625 0 0.414634 -0.4875 0 0.439024 -0.4875 0 
0.414634 -0.4625 0 0.463415 -0.4875 0 0.487805 -0.4625 0 
0.487805 -0.4875 0 0.463415 -0.4625 0 0.5375 -0.4875 0 
0.5125 -0.4625 0 0.5125 -0.4875 0 0.5375 -0.4625 0 
-0.5125 -0.4375 0 -0.5125 -0.4125 0 -0.5375 -0.4125 0 
-0.5375 -0.4375 0 -0.487814 -0.437047 0 -0.488463 -0.412502 0 
-0.465103 -0.436293 0 -0.454114 -0.414348 0 -0.440521 -0.436981 0 
-0.425714 -0.412031 0 -0.417245 -0.437289 0 -0.401551 -0.412268 0 
-0.353773 -0.411414 0 -0.393187 -0.437069 0 -0.377453 -0.410727 0 
-0.36975 -0.436818 0 -0.346119 -0.436739 0 -0.308153 -0.418645 0 
-0.331719 -0.409152 0 -0.322922 -0.438022 0 -0.254527 -0.438738 0 
-0.294809 -0.439524 0 -0.289505 -0.404366 0 -0.268326 -0.402743 0 
-0.27484 -0.430328 0 -0.230432 -0.435702 0 -0.203391 -0.412385 0 
-0.247499 -0.412821 0 -0.225029 -0.407713 0 -0.207696 -0.437867 0 
-0.184885 -0.435173 0 -0.173812 -0.411546 0 -0.161834 -0.438039 0 
-0.15121 -0.409773 0 -0.139602 -0.43505 0 -0.106453 -0.409667 0 
-0.117982 -0.436436 0 -0.128153 -0.407691 0 -0.0600143 -0.409513 0 
-0.0956307 -0.436369 0 -0.0829106 -0.410878 0 -0.0728775 -0.43687 0 
-0.0505768 -0.436299 0 -0.00555273 -0.435865 0 -0.0368338 -0.410943 0 
-0.0141175 -0.409145 0 -0.0277377 -0.437064 0 0.0316097 -0.412151 0 
0.0398782 -0.437298 0 0.0165469 -0.43667 0 0.00815925 -0.409157 0 
0.086089 -0.43676 0 0.062983 -0.436804 0 0.0797738 -0.411106 0 
0.05572 -0.411076 0 0.127476 -0.412449 0 0.132326 -0.436949 0 
0.108874 -0.437036 0 0.103692 -0.410379 0 0.155888 -0.4376 0 
0.180264 -0.437128 0 0.154746 -0.413337 0 0.179814 -0.412341 0 
0.207074 -0.415555 0 0.2302 -0.438983 0 0.239022 -0.419449 0 
0.204578 -0.437798 0 0.272008 -0.41848 0 0.287008 -0.438929 0 
0.259039 -0.438982 0 0.294239 -0.410343 0 0.253708 -0.401188 0 
0.319325 -0.411097 0 0.33266 -0.438194 0 0.309575 -0.435122 0 
0.343449 -0.41447 0 0.370157 -0.418166 0 0.399321 -0.419957 0 
0.386189 -0.43967 0 0.358309 -0.438746 0 0.439502 -0.438123 0 
0.427767 -0.41549 0 0.41449 -0.438937 0 0.489371 -0.438383 0 
0.463677 -0.43773 0 0.482534 -0.41705 0 0.454225 -0.414102 0 
0.5125 -0.4125 0 0.5375 -0.4375 0 0.5125 -0.4375 0 
0.5375 -0.4125 0 -0.5375 -0.3875 0 -0.5125 -0.3875 0 
-0.5375 -0.3625 0 -0.5125 -0.3625 0 -0.470653 -0.398654 0 
-0.477705 -0.363593 0 -0.490584 -0.382425 0 -0.456782 -0.377455 0 
-0.439343 -0.358718 0 -0.421694 -0.375123 0 -0.437932 -0.39319 0 
-0.403352 -0.388643 0 -0.379842 -0.384161 0 -0.351051 -0.358478 0 
-0.399469 -0.360355 0 -0.374455 -0.359611 0 -0.356185 -0.386448 0 
-0.334569 -0.378313 0 -0.316005 -0.360803 0 -0.314385 -0.391249 0 
-0.253186 -0.382809 0 -0.274772 -0.372236 0 -0.295165 -0.376942 0 
-0.252477 -0.355479 0 -0.20826 -0.379513 0 -0.229074 -0.35763 0 
-0.230525 -0.383562 0 -0.154415 -0.355987 0 -0.195561 -0.359444 0 
-0.174349 -0.373703 0 -0.188435 -0.393512 0 -0.154844 -0.385052 0 
-0.131686 -0.35455 0 -0.106954 -0.357104 0 -0.10933 -0.382096 0 
-0.132243 -0.380496 0 -0.0862389 -0.385752 0 -0.0551753 -0.35765 0 
-0.0614817 -0.383406 0 -0.0806901 -0.361968 0 -0.0320445 -0.357419 0 
-0.0385368 -0.38436 0 -0.00928443 -0.35475 0 -0.015881 -0.382362 0 
0.0131669 -0.354244 0 0.00628569 -0.381312 0 0.0343805 -0.362276 0 
0.0287871 -0.386745 0 0.0791481 -0.386745 0 0.0620265 -0.364098 0 
0.0907608 -0.365552 0 0.0532472 -0.386373 0 0.137275 -0.391812 0 
0.124189 -0.37179 0 0.110995 -0.351578 0 0.106221 -0.387114 0 
0.148289 -0.365279 0 0.192596 -0.35411 0 0.192313 -0.392108 0 
0.177525 -0.371365 0 0.162469 -0.388983 0 0.221742 -0.399059 0 
0.218386 -0.352364 0 0.209938 -0.375504 0 0.23825 -0.381839 0 
0.241841 -0.360907 0 0.291014 -0.36107 0 0.271797 -0.388085 0 
0.296496 -0.386798 0 0.267314 -0.365728 0 0.342132 -0.36989 0 
0.315364 -0.364476 0 0.322714 -0.388161 0 0.395802 -0.35659 0 
0.37634 -0.374008 0 0.375313 -0.396021 0 0.350361 -0.391806 0 
0.360472 -0.356789 0 0.422955 -0.35111 0 0.429511 -0.393936 0 
0.401301 -0.398542 0 0.405939 -0.376993 0 0.432678 -0.371246 0 
0.486924 -0.397463 0 0.481024 -0.356514 0 0.458945 -0.392959 0 
0.488342 -0.375983 0 0.457803 -0.371918 0 0.5125 -0.3625 0 
0.5375 -0.3875 0 0.5125 -0.3875 0 0.5375 -0.3625 0 
-0.5375 -0.3375 0 -0.5375 -0.3125 0 -0.5125 -0.3375 0 
-0.5125 -0.3125 0 -0.491043 -0.344336 0 -0.452265 -0.310683 0 
-0.490368 -0.31151 0 -0.472848 -0.326779 0 -0.458715 -0.345462 0 
-0.417453 -0.344509 0 -0.437672 -0.32947 0 -0.40326 -0.323731 0 
-0.421538 -0.309323 0 -0.391212 -0.300384 0 -0.358102 -0.332953 0 
-0.384384 -0.336864 0 -0.371538 -0.312994 0 -0.313231 -0.324923 0 
-0.332116 -0.34295 0 -0.3374 -0.317209 0 -0.27106 -0.320994 0 
-0.292884 -0.314525 0 -0.276535 -0.345657 0 -0.298086 -0.345709 0 
-0.212459 -0.342237 0 -0.248516 -0.331661 0 -0.227317 -0.323139 0 
-0.246813 -0.303988 0 -0.208103 -0.308318 0 -0.151927 -0.330243 0 
-0.175903 -0.34389 0 -0.169683 -0.313737 0 -0.191912 -0.326301 0 
-0.123032 -0.332293 0 -0.103433 -0.316272 0 -0.136374 -0.311306 0 
-0.0543337 -0.311836 0 -0.0779448 -0.311763 0 -0.0683099 -0.33675 0 
-0.0930119 -0.337742 0 -0.0416057 -0.331834 0 -0.0179857 -0.329755 0 
-0.0239896 -0.306336 0 0.0277016 -0.329307 0 0.04798 -0.342092 0 