# vtk DataFile Version 4.0
vtk output
ASCII
DATASET POLYDATA
FIELD FieldData 4
domain 1 3 string
domain_min:-20|-15
domain_max:20|15
cell_size:0.05

variables 1 2 string
dt:0.000372678
T:2.27395

constants 1 10 string
xsize:2
ysize:1
csize:0.05
dx:0.0238095
h:0.025
rho0:1000
mass:0.566894
g:1|0
c:13.4164
CFL:0.2

functions 1 8 string
time:T=(T+dt)
continuity:rho_dot=((-(rho*sph_D00(v,mass,rho,Wp52220)))+(((0.1*c)*h)*sph_L00(rho,mass,rho,Wp52220)))
irho:rho=(rho+int1((rho_dot,dt))
EOS:p=(((c^2)*(rho-rho0))+10000)
euler:a=if((gid,(0*v),(((-((1/rho)*sph_G11(p,mass,rho,Wp52220)))+(0.01*sph_L00(v,mass,rho,Wp52220)))+g))
vel:v=(v+int1((a,dt))
pos:r=(r+int1((v,dt))
new_dt:dt=(CFL*min((sqrt(((h/fmax(magnitude((a)))),(h/c)))

POINTS 2798 float
-0.5375 -0.4875 0 -0.5125 -0.4625 0 -0.5125 -0.4875 0 
-0.5375 -0.4625 0 -0.487805 -0.4875 0 -0.487805 -0.4625 0 
-0.463415 -0.4875 0 -0.463415 -0.4625 0 -0.414634 -0.4875 0 
-0.414634 -0.4625 0 -0.439024 -0.4875 0 -0.439024 -0.4625 0 
-0.365854 -0.4875 0 -0.365854 -0.4625 0 -0.390244 -0.4875 0 
-0.390244 -0.4625 0 -0.341463 -0.4875 0 -0.317073 -0.4875 0 
-0.341463 -0.4625 0 -0.317073 -0.4625 0 -0.292683 -0.4625 0 
-0.268293 -0.4625 0 -0.268293 -0.4875 0 -0.292683 -0.4875 0 
-0.243902 -0.4875 0 -0.219512 -0.4625 0 -0.243902 -0.4625 0 
-0.219512 -0.4875 0 -0.195122 -0.4625 0 -0.195122 -0.4875 0 
-0.170732 -0.4875 0 -0.170732 -0.4625 0 -0.121951 -0.4625 0 
-0.121951 -0.4875 0 -0.146341 -0.4625 0 -0.146341 -0.4875 0 
-0.097561 -0.4625 0 -0.097561 -0.4875 0 -0.0731707 -0.4875 0 
-0.0731707 -0.4625 0 -0.0243903 -0.4625 0 -1.86265e-08 -0.4625 0 
-1.86265e-08 -0.4875 0 -0.0243903 -0.4875 0 -0.0487805 -0.4625 0 
-0.0487805 -0.4875 0 0.0243902 -0.4625 0 0.0487805 -0.4625 0 
0.0487805 -0.4875 0 0.0243902 -0.4875 0 0.097561 -0.4625 0 
0.097561 -0.4875 0 0.0731707 -0.4875 0 0.0731707 -0.4625 0 
0.146341 -0.4625 0 0.121951 -0.4625 0 0.146341 -0.4875 0 
0.121951 -0.4875 0 0.170732 -0.4625 0 0.195122 -0.4875 0 
0.170732 -0.4875 0 0.195122 -0.4625 0 0.219512 -0.4625 0 
0.243902 -0.4625 0 0.243902 -0.4875 0 0.219512 -0.4875 0 
0.268293 -0.4875 0 0.292683 -0.4625 0 0.268293 -0.4625 0 
0.292683 -0.4875 0 0.341463 -0.4875 0 0.317073 -0.4625 0 
0.341463 -0.4625 0 0.317073 -0.4875 0 0.365854 -0.4875 0 
0.390244 -0.4875 0 0.365854 -0.4625 0 0.390244 -0.4625 0 
0.439024 -0.4625 0 0.414634 -0.4875 0 0.439024 -0.4875 0 
0.414634 -0.4625 0 0.463415 -0.4625 0 0.487805 -0.4875 0 
0.487805 -0.4625 0 0.463415 -0.4875 0 0.5375 -0.4625 0 
0.5375 -0.4875 0 0.5125 -0.4875 0 0.5125 -0.4625 0 
-0.5125 -0.4125 0 -0.5375 -0.4125 0 -0.5125 -0.4375 0 
-0.5375 -0.4375 0 -0.488572 -0.435823 0 -0.457059 -0.414798 0 
-0.466254 -0.436859 0 -0.488582 -0.410555 0 -0.406324 -0.412427 0 
-0.41773 -0.437128 0 -0.430448 -0.411603 0 -0.441095 -0.437348 0 
-0.357859 -0.410461 0 -0.370379 -0.437001 0 -0.381751 -0.411644 0 
-0.393882 -0.437223 0 -0.335615 -0.408601 0 -0.311705 -0.416571 0 
-0.347465 -0.436102 0 -0.325111 -0.437339 0 -0.298747 -0.440098 0 
-0.275678 -0.401697 0 -0.254181 -0.413704 0 -0.282234 -0.425764 0 
-0.26366 -0.439499 0 -0.210757 -0.411544 0 -0.239051 -0.436483 0 
-0.216436 -0.437184 0 -0.232056 -0.408031 0 -0.193404 -0.436313 0 
-0.170008 -0.437975 0 -0.161584 -0.41118 0 -0.184329 -0.411502 0 
-0.147267 -0.435354 0 -0.102829 -0.437254 0 -0.138953 -0.406542 0 
-0.125872 -0.43621 0 -0.117336 -0.410508 0 -0.0794443 -0.436949 0 
-0.0940864 -0.411617 0 -0.0705544 -0.411117 0 -0.0563033 -0.436975 0 
-0.0245024 -0.409571 0 -0.00194401 -0.409335 0 -0.0473438 -0.410634 0 
-0.0111867 -0.436081 0 -0.0334761 -0.436591 0 0.021319 -0.412197 0 
0.0348565 -0.437354 0 0.0455904 -0.411942 0 0.01124 -0.437054 0 
0.05823 -0.43721 0 0.0933696 -0.409601 0 0.0693514 -0.410192 0 
0.0805713 -0.435677 0 0.142929 -0.413328 0 0.102612 -0.437121 0 
0.125784 -0.436992 0 0.116746 -0.412153 0 0.149536 -0.437836 0 
0.167586 -0.411268 0 0.193691 -0.41494 0 0.197049 -0.43784 0 
0.172753 -0.436752 0 0.221728 -0.438437 0 0.247613 -0.438637 0 
0.225145 -0.417097 0 0.243539 -0.402386 0 0.260273 -0.41953 0 
0.276769 -0.439926 0 0.28432 -0.414603 0 0.30172 -0.437576 0 
0.335208 -0.413239 0 0.325655 -0.437311 0 0.309711 -0.413221 0 
0.349701 -0.43833 0 0.3911 -0.420086 0 0.362391 -0.417694 0 
0.376559 -0.439767 0 0.405164 -0.439974 0 0.44986 -0.419573 0 
0.419359 -0.41809 0 0.432234 -0.439137 0 0.460316 -0.439235 0 
0.482821 -0.419847 0 0.487999 -0.439601 0 0.45911 -0.400462 0 
0.5375 -0.4125 0 0.5125 -0.4375 0 0.5125 -0.4125 0 
0.5375 -0.4375 0 -0.5375 -0.3625 0 -0.5125 -0.3875 0 
-0.5375 -0.3875 0 -0.5125 -0.3625 0 -0.49076 -0.379977 0 
-0.478003 -0.360599 0 -0.470901 -0.396003 0 -0.457516 -0.374264 0 
-0.440592 -0.391505 0 -0.438615 -0.355938 0 -0.407108 -0.388613 0 
-0.403879 -0.356976 0 -0.423243 -0.373633 0 -0.359434 -0.354338 0 
-0.381157 -0.360851 0 -0.360586 -0.38607 0 -0.384142 -0.385011 0 
-0.320203 -0.357244 0 -0.303297 -0.373377 0 -0.342444 -0.373122 0 
-0.324776 -0.388186 0 -0.260822 -0.383072 0 -0.298494 -0.398272 0 
-0.257711 -0.355467 0 -0.281338 -0.370499 0 -0.216228 -0.378556 0 
-0.235409 -0.357659 0 -0.238387 -0.384419 0 -0.202313 -0.358192 0 
-0.162988 -0.386427 0 -0.16378 -0.355047 0 -0.180908 -0.372082 0 
-0.195987 -0.390795 0 -0.141261 -0.352606 0 -0.141457 -0.378374 0 
-0.117189 -0.358156 0 -0.118457 -0.383625 0 -0.0924013 -0.361433 0 
-0.0949775 -0.386283 0 -0.0691646 -0.358362 0 -0.0710976 -0.385165 0 
-0.0482376 -0.384161 0 -0.00269856 -0.382104 0 -0.023027 -0.356978 0 
-0.0463105 -0.357785 0 -0.0252879 -0.383144 0 0.000484927 -0.355161 0 
0.0222157 -0.361219 0 0.0438441 -0.386807 0 0.0478466 -0.362945 0 
0.0200976 -0.386672 0 0.0685587 -0.385236 0 0.0940205 -0.385686 0 
0.0963424 -0.350208 0 0.0763414 -0.362981 0 0.147566 -0.388975 0 
0.135852 -0.363629 0 0.123176 -0.389848 0 0.11095 -0.369153 0 
0.178679 -0.355409 0 0.178477 -0.390683 0 0.163055 -0.371462 0 
0.198447 -0.377303 0 0.202858 -0.353339 0 0.229566 -0.382695 0 
0.225726 -0.360947 0 0.209516 -0.398144 0 0.286792 -0.390087 0 
0.277636 -0.364346 0 0.263652 -0.390206 0 0.252932 -0.368196 0 
0.311679 -0.390097 0 0.340966 -0.391893 0 0.330259 -0.372064 0 
0.301972 -0.365963 0 0.367247 -0.375673 0 0.395185 -0.399072 0 
0.386568 -0.36233 0 0.351095 -0.359254 0 0.368104 -0.396693 0 
0.428126 -0.399495 0 0.449173 -0.354976 0 0.415908 -0.360751 0 
0.402792 -0.381097 0 0.432486 -0.378314 0 0.457693 -0.379205 0 
0.485796 -0.399878 0 0.475091 -0.361859 0 0.489977 -0.378105 0 
0.5375 -0.3875 0 0.5125 -0.3875 0 0.5125 -0.3625 0 
0.5375 -0.3625 0 -0.5375 -0.3375 0 -0.5125 -0.3125 0 
-0.5125 -0.3375 0 -0.5375 -0.3125 0 -0.457715 -0.342992 0 
-0.490477 -0.308472 0 -0.473203 -0.324593 0 -0.49086 -0.34147 0 
-0.454513 -0.30711 0 -0.438675 -0.325031 0 -0.418582 -0.338648 0 
-0.421842 -0.305385 0 -0.402266 -0.318602 0 -0.386081 -0.33424 0 
-0.363739 -0.328077 0 -0.375997 -0.304979 0 -0.33804 -0.342466 0 
-0.343889 -0.315424 0 -0.321113 -0.321173 0 -0.303782 -0.339442 0 
-0.253855 -0.30311 0 -0.257424 -0.331136 0 -0.282716 -0.345707 0 
-0.298721 -0.310665 0 -0.278336 -0.318957 0 -0.219564 -0.341044 0 
-0.218091 -0.306302 0 -0.235939 -0.323727 0 -0.201081 -0.322666 0 
-0.162866 -0.328472 0 -0.185275 -0.340462 0 -0.179432 -0.309242 0 
-0.134347 -0.33029 0 -0.106696 -0.336458 0 -0.114317 -0.313958 0 
-0.148028 -0.309195 0 -0.0823182 -0.334887 0 -0.0573965 -0.332112 0 
-0.0647186 -0.308682 0 -0.0882974 -0.310357 0 -0.00905095 -0.330951 0 
-0.0373411 -0.307761 0 -0.0124678 -0.305896 0 -0.0333618 -0.332005 0 
0.00912307 -0.30059 0 0.0323311 -0.308458 0 0.0139334 -0.328404 0 
0.0340063 -0.339177 0 0.0736448 -0.306647 0 0.0828832 -0.329829 0 
0.0524114 -0.31872 0 0.0612946 -0.342203 0 0.137592 -0.324311 0 
0.105511 -0.320561 0 0.120319 -0.341705 0 0.122886 -0.304084 0 
0.170956 -0.331814 0 0.184033 -0.307719 0 0.157843 -0.310525 0 
0.197128 -0.329545 0 0.150627 -0.345605 0 0.213389 -0.310997 0 
0.239064 -0.315441 0 0.225048 -0.33548 0 0.249213 -0.345661 0 
0.262422 -0.32667 0 0.275025 -0.307492 0 0.280722 -0.342305 0 
0.298254 -0.305898 0 0.298927 -0.330468 0 0.322274 -0.321948 0 
0.316942 -0.349385 0 0.342585 -0.310386 0 0.341322 -0.339632 0 
0.397831 -0.319679 0 0.363642 -0.324946 0 0.378775 -0.306243 0 
0.374956 -0.342778 0 0.416205 -0.3009 0 0.402823 -0.339794 0 
0.431661 -0.341837 0 0.428342 -0.319784 0 0.452597 -0.317922 0 
0.489121 -0.31923 0 0.465717 -0.334982 0 0.490002 -0.344806 0 
0.477201 -0.302037 0 0.5125 -0.3125 0 0.5375 -0.3125 0 
0.5125 -0.3375 0 0.5375 -0.3375 0 -0.5125 -0.2625 0 
-0.5375 -0.2625 0 -0.5125 -0.2875 0 -0.5375 -0.2875 0 
-0.49035 -0.276985 0 -0.471927 -0.258559 0 -0.471615 -0.290764 0 
-0.452528 -0.271886 0 -0.428248 -0.257638 0 -0.412914 -0.275904 0 
-0.43651 -0.287539 0 -0.396166 -0.292657 0 -0.395701 -0.25684 0 
-0.356927 -0.291955 0 -0.356008 -0.26714 0 -0.379046 -0.273521 0 
-0.331442 -0.266615 0 -0.309465 -0.290309 0 -0.309352 -0.261086 0 
-0.331956 -0.292201 0 -0.268903 -0.256562 0 -0.273837 -0.291705 0 
-0.288657 -0.276357 0 -0.25356 -0.271523 0 -0.23506 -0.28912 0 
-0.202214 -0.255235 0 -0.214511 -0.274708 0 -0.233085 -0.257867 0 
-0.156729 -0.255304 0 -0.196782 -0.29143 0 -0.180804 -0.272264 0 
-0.164201 -0.289386 0 -0.131526 -0.251276 0 -0.116781 -0.271378 0 
-0.144571 -0.276159 0 -0.127807 -0.294871 0 -0.0550982 -0.287201 0 
-0.0976125 -0.257566 0 -0.0718613 -0.256644 0 -0.0993153 -0.288986 0 
-0.0781273 -0.279832 0 -0.027467 -0.283367 0 -0.0248691 -0.252457 0 
-0.0458288 -0.264745 0 -0.00690222 -0.274527 0 0.0238968 -0.250422 0 
0.0160436 -0.27596 0 0.0386366 -0.285166 0 0.0442201 -0.26063 0 
0.0612556 -0.287491 0 0.0734178 -0.268212 0 0.0941997 -0.296656 0 
0.0955267 -0.272128 0 0.118199 -0.280786 0 0.14504 -0.290768 0 
0.130423 -0.26114 0 0.17426 -0.285953 0 0.183952 -0.264084 0 
0.154242 -0.269323 0 0.228474 -0.288516 0 0.202296 -0.288764 0 
0.208552 -0.265326 0 0.232128 -0.262578 0 0.296766 -0.253825 0 
0.25506 -0.271691 0 0.252944 -0.295181 0 0.273098 -0.257084 0 
0.280662 -0.2829 0 0.338021 -0.277804 0 0.323892 -0.258387 0 
[...]
POINT_DATA 2798
SCALARS id float
LOOKUP_TABLE default
2600 2621 2620 2601 2640 2641 2642 2643 2646 
2647 2644 2645 2650 2651 2648 2649 2652 2654 
2653 2655 2657 2659 2658 2656 2660 2663 2661 
2662 2665 2664 2666 2667 2671 2670 2669 2668 
2673 2672 2674 2675 2679 2681 2680 2678 2677 
2676 2683 2685 2684 2682 2689 2688 2686 2687 
2693 2691 2692 2690 2695 2696 2694 2697 2699 
2701 2700 2698 2702 2705 2703 2704 2708 2707 
2709 2706 2710 2712 2711 2713 2717 2714 2716 
2715 2719 2720 2721 2718 2743 2742 2722 2723 
2623 2603 2622 2602 1660 1714 1678 1697 1840 
1786 1823 1732 1949 1858 1913 1804 1967 1912 
1876 1894 1930 2111 2129 1948 1984 2165 2020 
2038 2147 2056 2074 2201 2183 2092 2128 2219 
2110 2237 2146 2218 2291 2164 2329 2328 2310 
2200 2182 2330 2254 2331 2236 2272 2350 2347 
2290 2365 2309 2308 2349 2327 2366 2364 2346 
2326 2348 2345 2368 2372 2363 2344 2370 2362 
2371 2380 2383 2386 2367 2390 2382 2381 2388 
280 2389 2385 2387 2384 2301 2745 2724 2725 
2744 2605 2624 2604 2625 1661 1715 1696 1750 
1768 1805 1822 1859 1841 1986 1914 1931 1877 
2003 2057 1985 1966 2130 2093 2131 2112 2166 
2167 2148 2203 2220 2239 2202 2184 2257 2238 
2275 2256 2274 2255 2312 2273 2311 2332 2300 
2315 2313 2283 2317 2333 2336 2316 2334 2352 
2248 2335 2354 2318 2351 2353 60 2369 2284 
1461 20 1620 1460 2337 0 1201 340 1122 
2267 2090 1101 1281 2213 2391 1221 1420 2231 
2373 1001 1121 1341 1183 1321 2355 1081 320 
2746 2726 2727 2747 2606 2627 2626 2607 1787 
1662 1733 1679 1806 1824 1842 1843 1860 1895 
1950 1932 2004 2022 2021 2002 2113 2149 2075 
2039 2094 2185 2204 2186 2222 2258 2221 2240 
2276 2293 2294 2259 2292 2314 2296 2295 2247 
2299 2265 2282 2212 2018 2125 2230 1441 2142 
21 2266 1481 1362 1875 1521 100 1301 1561 
1161 2195 1928 1820 1541 1181 1261 1580 1540 
1802 1241 1040 1141 1749 1520 1784 1766 1853 
1400 1560 1440 1729 1713 1712 1300 1873 1767 
1818 2729 2749 2728 2748 2629 2609 2628 2608 
1698 1734 1716 1769 1862 1861 1825 1896 1878 
2005 2023 1933 2041 2058 2059 2040 2096 2076 
2077 2095 2150 2206 2168 2132 2208 2223 2224 
2241 2225 2260 2242 2277 2298 2279 2280 2278 
2297 2281 2263 2246 2264 2054 2229 1929 2072 
1522 1581 120 1838 140 1361 1946 40 1 
180 1910 1600 1731 1963 1693 1837 160 462 
1892 762 1979 900 1942 820 1120 1874 1909 
1962 1180 542 1783 1891 1080 1675 1220 1819 
2731 2750 2730 2751 2631 2610 2611 2630 1751 
1680 1752 1880 1844 1788 1879 1807 1915 1951 
1968 1987 2061 1969 2060 2024 2042 2079 2078 
2080 2097 2098 2114 2115 2169 2187 2190 2207 
2133 2205 2191 2189 2156 2243 2261 2262 2244 
2194 2209 2226 2245 2228 2227 2124 2211 1893 
2159 1821 2177 1911 2107 2035 2070 2176 1982 
1857 1803 1839 1964 1926 1998 1981 2034 1980 
2088 2017 2033 1908 2051 2016 1856 1785 1890 
80 2325 1997 1709 1927 1945 2145 1676 2733 
2732 2752 2753 2612 2632 2613 2633 1789 1735 
1826 1717 1770 1916 1881 1935 1898 1934 1970 
1897 1953 2043 2006 1952 1988 2045 2063 2062 
2028 2081 2099 2046 2064 2116 2117 2151 2170 
2188 2172 2174 2152 2140 2173 2155 2123 2139 
2136 2171 2192 2154 2210 2193 2175 2089 2157 
2158 2036 2053 2141 2052 2087 2068 2071 2122 
2103 2085 2000 2106 2105 2014 2015 2104 2050 
2102 1708 2084 2049 2069 2032 1978 1100 2067 
1961 1999 2086 2031 2288 1889 1140 2306 2755 
2754 2734 2735 2615 2634 2614 2635 1863 1771 
1663 1753 1917 1900 1899 1971 1972 1954 1989 
2025 2007 2026 1990 2008 2010 2027 2044 1991 
1992 2009 1924 1993 1905 2029 1977 2134 1959 
1958 2135 2047 2065 2100 2030 2082 1887 2012 
2011 1941 1835 2120 2153 1852 1870 2101 2137 
1816 2138 2083 1925 2119 1705 2048 2121 1689 
1851 1960 1777 1723 1780 1795 2066 1742 1797 
2118 1815 1673 2013 1740 1944 2320 1745 2357 
1906 2234 1799 1746 1814 1710 1996 1762 1674 
2757 2756 2736 2737 2617 2616 2637 2636 1808 
1718 1699 1790 1882 1901 1919 1918 1936 1737 
1902 1937 1955 1973 1920 1938 1885 1956 1829 
1903 220 1957 1939 1974 1975 1792 1921 1976 
1868 1849 1940 1848 1831 1817 1667 1922 1904 
1684 1811 1923 1830 1813 1871 541 1794 1758 
1869 1781 1711 1722 1793 1994 1834 1798 1886 
1995 1775 1850 1741 1727 1670 2215 1776 2374 
1779 1686 1142 2250 2143 1061 1282 1704 404 
2251 1283 2303 2232 2323 1888 1760 1695 2758 
2739 2759 2738 2564 2567 2566 2565 2571 2568 
2570 2569 2575 2574 2573 2572 2577 2579 2576 
2578 2581 2580 2583 2582 2586 2585 2584 2587 
2588 2589 2590 2591 2593 2595 2594 2592 2599 
2596 2598 2597 2619 2639 2618 2638 1730 1700 
1681 1845 1736 1864 1883 1719 1846 1772 1665 
1664 1809 1827 1320 1701 1682 1041 1828 1884 
1865 1754 482 1847 1242 1683 1866 1738 1810 
1867 1720 1102 1601 1791 1260 1702 822 1773 
1692 1755 1782 1062 263 2160 1854 1401 1703 
2285 1669 861 1739 1021 1262 1812 1668 1685 
1677 1222 2319 2338 1721 1832 260 1774 2356 
980 1757 682 2392 1756 920 641 843 124 
901 321 240 264 463 123 783 742 2377 
940 2761 2740 2760 2741 2765 2764 2763 2762 
2767 2769 2766 2768 2772 2773 2771 2770 2775 
2777 2776 2774 2778 2781 2779 2780 2785 2783 
2782 2784 2786 2787 2788 2789 2792 2793 2791 
2790 2796 2794 2795 2797 2394 1582 1743 2343 
461 2358 803 640 41 1303 1688 1542 1761 
1672 2287 1044 2199 2019 1382 1223 2341 181 
763 1020 761 983 163 2037 1480 2339 806 
1855 2378 2270 2360 2307 520 2304 1690 780 
2180 1500 2055 2321 1765 1836 1380 341 1263 
2233 840 720 1105 1747 162 1801 2217 1544 
680 1800 421 1200 2342 1564 2197 2109 802 
460 1666 223 2091 1983 141 200 1748 1706 
881 660 862 1641 941 1907 921 561 1872 
420 1385 1764 22 261 61 1643 981 860 
281 500 2269 1364 1694 620 363 701 1202 
402 1240 1340 540 2181 362 101 700 423 
2178 501 381 600 442 441 122 1605 302 
1000 521 241 2249 401 1691 721 681 343 
2214 1726 361 1543 382 2361 2376 2397 1182 
403 801 1943 1671 2359 1778 1725 1744 1728 
883 1022 903 800 1947 1759 1043 2396 1763 
1502 2252 601 1184 781 960 1402 1023 1621 
1322 1707 2271 922 1724 804 961 1421 2302 
342 841 741 1003 2179 823 602 1243 923 
2216 325 1123 1162 201 622 643 744 563 
702 444 2305 1063 963 503 366 161 884 
2235 502 1204 1185 1042 625 2161 2253 2393 
982 902 2163 464 844 2395 623 1422 1144 
1163 1060 984 786 764 2108 1483 300 2289 
904 1004 1302 1145 605 1124 845 1045 724 
1383 1143 705 1064 964 805 1264 1602 746 
360 1363 81 480 1224 1501 2324 2268 143 
42 2340 1344 1443 83 1404 1563 3 1463 
1403 1066 221 182 2127 2162 1424 481 560 
1087 1423 1280 1360 1160 104 43 2379 2322 
422 2286 1227 121 84 380 1304 1365 1604 
102 4 400 1525 440 1965 103 1585 1325 
1485 262 105 740 62 621 282 1523 722 
242 2126 6 224 962 301 760 1796 2198 
1342 323 703 222 304 661 2375 1833 26 
25 27 1645 24 184 782 1687 203 364 
723 1381 880 245 522 582 243 344 284 
324 305 322 86 443 1082 583 1203 66 
225 942 821 285 186 662 1002 365 147 
683 205 642 483 581 864 286 405 562 
543 345 385 1103 684 664 943 1083 863 
544 743 663 1640 523 247 603 307 2196 
624 825 882 824 704 665 484 604 766 
842 485 566 584 626 564 347 1024 546 
785 526 506 745 545 784 646 486 765 
924 725 1106 687 586 905 1482 925 1065 
1086 1164 1104 985 1562 1025 887 1225 945 
907 1085 1244 1442 1125 965 827 868 986 
1343 847 1384 849 1345 1186 1503 2001 1323 
23 967 1006 1005 63 1265 1067 987 1007 
1524 1207 1088 1644 1622 1642 1603 2144 1187 
1286 1565 1346 1505 1266 1128 1504 1623 1584 
1405 1425 2 44 1464 1406 144 85 283 
1267 1583 1466 383 5 580 1367 1387 1484 
1486 1446 1624 1546 45 1368 1547 1445 1567 
1487 1625 244 64 183 1586 1428 1506 1566 
1448 165 1527 204 46 1468 1526 65 166 
303 1647 1607 202 1627 164 47 185 7 
206 67 125 146 266 226 126 384 424 
187 167 326 306 246 386 265 227 208 
148 346 287 209 108 228 168 327 189 
229 149 267 504 565 645 249 268 644 
288 524 425 585 465 446 505 426 525 
685 466 547 427 487 467 787 527 666 
686 507 606 885 826 866 865 807 1084 
944 906 788 886 867 727 767 846 848 
628 728 668 707 748 1462 1046 966 688 
1047 1366 1165 888 926 946 1126 869 829 
1205 947 948 1026 908 1226 928 927 1027 
82 1206 2073 1285 1245 1284 1324 1246 1545 
1127 1305 142 1109 1167 1228 1148 1049 1208 
1247 1465 1426 1444 1209 1149 1129 1306 1130 
1168 1347 1229 1386 1111 1287 1326 1248 1307 
1268 1327 1407 1427 1288 1328 1348 1309 1388 
1467 1447 1329 1408 1409 1349 1606 1369 1646 
1626 1488 1507 1548 1587 1528 1509 1588 1568 
1529 1508 1608 1628 1549 87 1589 1648 145 
1569 1629 106 28 8 1649 127 88 48 
49 9 29 207 68 107 69 50 30 
70 89 128 188 129 248 150 109 169 
210 170 190 406 289 308 269 171 230 
328 250 309 270 329 445 348 407 367 
387 447 368 408 468 448 409 488 706 
567 607 587 469 627 647 568 726 588 
747 549 608 529 667 550 590 569 589 
570 629 648 689 708 669 709 670 768 
729 828 690 808 671 749 769 850 889 
789 809 870 851 909 830 890 1107 910 
891 968 1108 1008 1166 1146 1068 1048 1069 
1089 1010 1090 1147 1029 1009 1110 1188 1030 
1050 1012 1051 1070 1071 1091 1093 1112 1092 
1189 1169 1150 1131 1190 1230 1210 1170 1269 
1249 1308 1211 1250 1290 1270 1289 1311 1330 
1310 1291 1370 1331 1429 1350 1449 1410 1469 
1389 1450 1430 1489 1470 1471 1510 1490 1451 
1491 1511 1530 1550 1531 1551 1570 1609 1590 
1630 1610 1591 1571 1611 1632 1631 1650 10 
1651 90 51 31 71 91 110 130 151 
132 133 111 131 153 172 173 191 152 
212 192 231 211 310 290 232 251 349 
369 271 291 330 388 350 389 428 370 
429 449 390 410 508 411 430 450 509 
548 470 489 511 528 510 490 491 551 
609 530 512 649 571 610 591 650 630 
611 631 651 652 691 672 711 710 730 
751 750 770 731 811 791 790 771 810 
871 892 831 911 930 949 988 929 970 
989 1028 969 990 951 950 1011 1031 992 
971 991 1034 1032 1054 1033 1052 1073 1074 
1072 1053 1113 1132 1133 1094 1134 1151 1152 
1171 1172 1153 1231 1192 1213 1212 1191 1232 
1252 1251 1233 1293 1271 1272 1292 1333 1332 
1351 1312 1313 1372 1371 1352 1390 1411 1431 
1412 1391 1452 1472 1432 1433 1473 1493 1512 
1492 1552 1533 1532 1513 1553 1572 1573 1592 
1593 1612 1633 1613 1653 13 11 1652 12 
33 53 32 52 72 112 92 93 73 
154 134 113 155 175 174 194 193 213 
214 233 234 252 254 253 273 293 272 
292 311 312 332 351 331 372 352 371 
412 392 391 451 432 452 431 471 493 
472 473 492 513 531 532 572 553 573 
552 593 613 612 592 632 633 653 712 
713 674 673 692 693 732 752 753 733 
773 772 793 792 813 852 832 812 853 
872 874 873 894 914 913 912 893 931 
932 953 952 933 973 972 1013 993 1014 
1136 1155 1216 1175 1135 1115 1194 1154 1235 
1114 1174 1173 1193 1275 1255 1315 1234 1254 
1295 1355 1335 1273 1253 1274 1395 1294 1314 
1375 1394 1354 1415 1334 1414 1374 1373 1353 
1393 1392 1413 1434 1475 1495 1453 1515 1454 
1474 1535 1555 1494 1514 1534 1595 1575 1594 
1554 1635 1574 1615 1655 15 1634 1614 35 
1654 14 55 75 54 95 34 156 94 
115 74 176 114 215 135 196 276 195 
275 296 315 375 235 295 255 374 274 
354 314 294 395 333 313 353 415 414 
394 435 393 373 434 413 454 455 453 
495 433 475 494 474 534 515 533 555 
514 575 554 574 595 615 635 655 614 
796 594 675 695 634 715 654 735 694 
755 714 795 775 754 734 794 815 774 
835 833 855 814 834 854 955 975 875 
915 995 895 954 1035 1055 934 1015 974 
994 1075 1095 1577 1557 1276 1256 1316 1617 
1296 1597 1195 1657 1637 1214 1336 1356 1376 
1396 17 37 57 1416 1436 77 97 1456 
137 1476 1496 117 157 177 1536 1516 1435 
1455 1556 197 217 277 1576 1596 237 1616 
1636 317 297 357 16 1656 337 36 397 
56 417 437 96 76 457 116 136 477 
376 257 497 216 537 256 236 517 377 
557 336 577 316 617 356 597 637 335 
355 657 334 677 717 697 396 416 757 
436 737 476 777 456 797 516 837 817 
496 536 857 535 877 917 897 556 576 
937 636 957 596 616 977 997 656 676 
1017 716 1037 696 1057 736 1077 1097 756 
776 1117 1177 1137 816 1217 856 836 876 
1257 936 1237 976 956 1277 1297 1036 996 
896 1016 1337 1317 1357 935 1377 1056 916 
1417 1076 1096 1397 1437 1457 1157 1116 1196 
1176 1477 1497 1156 1517 1215 1236 1537 658 
579 678 559 698 599 619 718 758 639 
738 659 798 699 778 679 818 739 719 
858 838 779 759 878 799 819 898 938 
859 839 958 918 879 919 978 899 998 
1018 1038 939 959 999 1058 979 1078 1039 
1118 1098 1019 1059 1158 1079 1138 1198 1139 
1178 1119 1099 1218 1159 1238 1179 1219 1278 
1199 1258 1298 1318 1239 1259 1358 1279 1338 
1378 1299 1418 1398 1339 1359 1319 1458 1399 
1379 1438 1498 1419 1439 1478 1538 1479 1518 
1459 1598 1499 1578 1519 1558 1539 1638 1618 
1559 1579 18 1599 1658 1619 1639 38 1659 
58 78 19 118 39 98 158 59 79 
138 99 119 178 198 218 159 139 238 
278 298 199 179 258 1197 219 318 239 
378 358 338 259 279 398 299 418 319 
458 438 339 498 359 478 379 518 419 
538 399 578 459 439 558 479 598 499 
618 539 519 638 2399 2401 2398 2400 2404 
2405 2403 2402 2409 2406 2407 2408 2412 2413 
2410 2411 2416 2415 2417 2414 2420 2418 2421 
2419 2424 2425 2422 2427 2423 2426 2431 2430 
2429 2428 2434 2432 2435 2433 2439 2438 2437 
2436 2443 2442 2441 2440 2446 2447 2444 2445 
2450 2448 2449 2451 2455 2453 2452 2454 2459 
2457 2458 2456 2461 2462 2460 2463 2466 2465 
2467 2464 2469 2468 2471 2470 2473 2472 2474 
2475 2481 2476 2477 2480 2478 2479 2482 2483 
2484 2485 2487 2486 2489 2488 2492 2493 2491 
2490 2497 2496 2495 2494 2498 2499 2501 2500 
2505 2503 2502 2504 2507 2506 2508 2509 2511 
2512 2513 2510 2514 2515 2516 2517 2521 2520 
2519 2518 2522 2523 2524 2525 2527 2526 2528 
2529 2532 2533 2531 2530 2534 2535 2536 2537 
2538 2539 2540 2543 2542 2541 2547 2546 2544 
2545 2548 2549 2550 2551 2553 2554 2555 2552 
2558 2556 2557 2559 2560 2561 2562 2563 
FIELD FieldData 7
r 3 2798 float
-0.5375 -0.4875 0 -0.5125 -0.4625 0 -0.5125 -0.4875 0 
-0.5375 -0.4625 0 -0.487805 -0.4875 0 -0.487805 -0.4625 0 
-0.463415 -0.4875 0 -0.463415 -0.4625 0 -0.414634 -0.4875 0 
-0.414634 -0.4625 0 -0.439024 -0.4875 0 -0.439024 -0.4625 0 
-0.365854 -0.4875 0 -0.365854 -0.4625 0 -0.390244 -0.4875 0 
-0.390244 -0.4625 0 -0.341463 -0.4875 0 -0.317073 -0.4875 0 
-0.341463 -0.4625 0 -0.317073 -0.4625 0 -0.292683 -0.4625 0 
-0.268293 -0.4625 0 -0.268293 -0.4875 0 -0.292683 -0.4875 0 
-0.243902 -0.4875 0 -0.219512 -0.4625 0 -0.243902 -0.4625 0 
-0.219512 -0.4875 0 -0.195122 -0.4625 0 -0.195122 -0.4875 0 
-0.170732 -0.4875 0 -0.170732 -0.4625 0 -0.121951 -0.4625 0 
-0.121951 -0.4875 0 -0.146341 -0.4625 0 -0.146341 -0.4875 0 
-0.097561 -0.4625 0 -0.097561 -0.4875 0 -0.0731707 -0.4875 0 
-0.0731707 -0.4625 0 -0.0243903 -0.4625 0 -1.86265e-08 -0.4625 0 
-1.86265e-08 -0.4875 0 -0.0243903 -0.4875 0 -0.0487805 -0.4625 0 
-0.0487805 -0.4875 0 0.0243902 -0.4625 0 0.0487805 -0.4625 0 
0.0487805 -0.4875 0 0.0243902 -0.4875 0 0.097561 -0.4625 0 
0.097561 -0.4875 0 0.0731707 -0.4875 0 0.0731707 -0.4625 0 
0.146341 -0.4625 0 0.121951 -0.4625 0 0.146341 -0.4875 0 
0.121951 -0.4875 0 0.170732 -0.4625 0 0.195122 -0.4875 0 
0.170732 -0.4875 0 0.195122 -0.4625 0 0.219512 -0.4625 0 
0.243902 -0.4625 0 0.243902 -0.4875 0 0.219512 -0.4875 0 
0.268293 -0.4875 0 0.292683 -0.4625 0 0.268293 -0.4625 0 
0.292683 -0.4875 0 0.341463 -0.4875 0 0.317073 -0.4625 0 
0.341463 -0.4625 0 0.317073 -0.4875 0 0.365854 -0.4875 0 
0.390244 -0.4875 0 0.365854 -0.4625 0 0.390244 -0.4625 0 
0.439024 -0.4625 0 0.414634 -0.4875 0 0.439024 -0.4875 0 
0.414634 -0.4625 0 0.463415 -0.4625 0 0.487805 -0.4875 0 
0.487805 -0.4625 0 0.463415 -0.4875 0 0.5375 -0.4625 0 
0.5375 -0.4875 0 0.5125 -0.4875 0 0.5125 -0.4625 0 
-0.5125 -0.4125 0 -0.5375 -0.4125 0 -0.5125 -0.4375 0 
-0.5375 -0.4375 0 -0.488572 -0.435823 0 -0.457059 -0.414798 0 
-0.466254 -0.436859 0 -0.488582 -0.410555 0 -0.406324 -0.412427 0 
-0.41773 -0.437128 0 -0.430448 -0.411603 0 -0.441095 -0.437348 0 
-0.357859 -0.410461 0 -0.370379 -0.437001 0 -0.381751 -0.411644 0 
-0.393882 -0.437223 0 -0.335615 -0.408601 0 -0.311705 -0.416571 0 
-0.347465 -0.436102 0 -0.325111 -0.437339 0 -0.298747 -0.440098 0 
-0.275678 -0.401697 0 -0.254181 -0.413704 0 -0.282234 -0.425764 0 
-0.26366 -0.439499 0 -0.210757 -0.411544 0 -0.239051 -0.436483 0 
-0.216436 -0.437184 0 -0.232056 -0.408031 0 -0.193404 -0.436313 0 
-0.170008 -0.437975 0 -0.161584 -0.41118 0 -0.184329 -0.411502 0 
-0.147267 -0.435354 0 -0.102829 -0.437254 0 -0.138953 -0.406542 0 
-0.125872 -0.43621 0 -0.117336 -0.410508 0 -0.0794443 -0.436949 0 
-0.0940864 -0.411617 0 -0.0705544 -0.411117 0 -0.0563033 -0.436975 0 
-0.0245024 -0.409571 0 -0.00194401 -0.409335 0 -0.0473438 -0.410634 0 
-0.0111867 -0.436081 0 -0.0334761 -0.436591 0 0.021319 -0.412197 0 
0.0348565 -0.437354 0 0.0455904 -0.411942 0 0.01124 -0.437054 0 
0.05823 -0.43721 0 0.0933696 -0.409601 0 0.0693514 -0.410192 0 
0.0805713 -0.435677 0 0.142929 -0.413328 0 0.102612 -0.437121 0 
0.125784 -0.436992 0 0.116746 -0.412153 0 0.149536 -0.437836 0 
0.167586 -0.411268 0 0.193691 -0.41494 0 0.197049 -0.43784 0 
0.172753 -0.436752 0 0.221728 -0.438437 0 0.247613 -0.438637 0 
0.225145 -0.417097 0 0.243539 -0.402386 0 0.260273 -0.41953 0 
0.276769 -0.439926 0 0.28432 -0.414603 0 0.30172 -0.437576 0 
0.335208 -0.413239 0 0.325655 -0.437311 0 0.309711 -0.413221 0 
0.349701 -0.43833 0 0.3911 -0.420086 0 0.362391 -0.417694 0 
0.376559 -0.439767 0 0.405164 -0.439974 0 0.44986 -0.419573 0 
0.419359 -0.41809 0 0.432234 -0.439137 0 0.460316 -0.439235 0 
0.482821 -0.419847 0 0.487999 -0.439601 0 0.45911 -0.400462 0 
0.5375 -0.4125 0 0.5125 -0.4375 0 0.5125 -0.4125 0 
0.5375 -0.4375 0 -0.5375 -0.3625 0 -0.5125 -0.3875 0 
-0.5375 -0.3875 0 -0.5125 -0.3625 0 -0.49076 -0.379977 0 
-0.478003 -0.360599 0 -0.470901 -0.396003 0 -0.457516 -0.374264 0 
-0.440592 -0.391505 0 -0.438615 -0.355938 0 -0.407108 -0.388613 0 
-0.403879 -0.356976 0 -0.423243 -0.373633 0 -0.359434 -0.354338 0 
-0.381157 -0.360851 0 -0.360586 -0.38607 0 -0.384142 -0.385011 0 
-0.320203 -0.357244 0 -0.303297 -0.373377 0 -0.342444 -0.373122 0 
-0.324776 -0.388186 0 -0.260822 -0.383072 0 -0.298494 -0.398272 0 
-0.257711 -0.355467 0 -0.281338 -0.370499 0 -0.216228 -0.378556 0 
-0.235409 -0.357659 0 -0.238387 -0.384419 0 -0.202313 -0.358192 0 
-0.162988 -0.386427 0 -0.16378 -0.355047 0 -0.180908 -0.372082 0 
-0.195987 -0.390795 0 -0.141261 -0.352606 0 -0.141457 -0.378374 0 
-0.117189 -0.358156 0 -0.118457 -0.383625 0 -0.0924013 -0.361433 0 
-0.0949775 -0.386283 0 -0.0691646 -0.358362 0 -0.0710976 -0.385165 0 
-0.0482376 -0.384161 0 -0.00269856 -0.382104 0 -0.023027 -0.356978 0 
-0.0463105 -0.357785 0 -0.0252879 -0.383144 0 0.000484927 -0.355161 0 
0.0222157 -0.361219 0 0.0438441 -0.386807 0 0.0478466 -0.362945 0 
0.0200976 -0.386672 0 0.0685587 -0.385236 0 0.0940205 -0.385686 0 
0.0963424 -0.350208 0 0.0763414 -0.362981 0 0.147566 -0.388975 0 
0.135852 -0.363629 0 0.123176 -0.389848 0 0.11095 -0.369153 0 
0.178679 -0.355409 0 0.178477 -0.390683 0 0.163055 -0.371462 0 
0.198447 -0.377303 0 0.202858 -0.353339 0 0.229566 -0.382695 0 
0.225726 -0.360947 0 0.209516 -0.398144 0 0.286792 -0.390087 0 
0.277636 -0.364346 0 0.263652 -0.390206 0 0.252932 -0.368196 0 
0.311679 -0.390097 0 0.340966 -0.391893 0 0.330259 -0.372064 0 
0.301972 -0.365963 0 0.367247 -0.375673 0 0.395185 -0.399072 0 
0.386568 -0.36233 0 0.351095 -0.359254 0 0.368104 -0.396693 0 
0.428126 -0.399495 0 0.449173 -0.354976 0 0.415908 -0.360751 0 
0.402792 -0.381097 0 0.432486 -0.378314 0 0.457693 -0.379205 0 
0.485796 -0.399878 0 0.475091 -0.361859 0 0.489977 -0.378105 0 
0.5375 -0.3875 0 0.5125 -0.3875 0 0.5125 -0.3625 0 
0.5375 -0.3625 0 -0.5375 -0.3375 0 -0.5125 -0.3125 0 
-0.5125 -0.3375 0 -0.5375 -0.3125 0 -0.457715 -0.342992 0 
-0.490477 -0.308472 0 -0.473203 -0.324593 0 -0.49086 -0.34147 0 
-0.454513 -0.30711 0 -0.438675 -0.325031 0 -0.418582 -0.338648 0 
-0.421842 -0.305385 0 -0.402266 -0.318602 0 -0.386081 -0.33424 0 
-0.363739 -0.328077 0 -0.375997 -0.304979 0 -0.33804 -0.342466 0 
-0.343889 -0.315424 0 -0.321113 -0.321173 0 -0.303782 -0.339442 0 
-0.253855 -0.30311 0 -0.257424 -0.331136 0 -0.282716 -0.345707 0 
-0.298721 -0.310665 0 -0.278336 -0.318957 0 -0.219564 -0.341044 0 
-0.218091 -0.306302 0 -0.235939 -0.323727 0 -0.201081 -0.322666 0 
-0.162866 -0.328472 0 -0.185275 -0.340462 0 -0.179432 -0.309242 0 
-0.134347 -0.33029 0 -0.106696 -0.336458 0 -0.114317 -0.313958 0 
-0.148028 -0.309195 0 -0.0823182 -0.334887 0 -0.0573965 -0.332112 0 
-0.0647186 -0.308682 0 -0.0882974 -0.310357 0 -0.00905095 -0.330951 0 