# vtk DataFile Version 4.0
vtk output
ASCII
DATASET POLYDATA
FIELD FieldData 4
domain 1 3 string
domain_min:-20|-15
domain_max:20|15
cell_size:0.05

variables 1 2 string
dt:0.000372678
T:0.583617

constants 1 10 string
xsize:2
ysize:1
csize:0.05
dx:0.0238095
h:0.025
rho0:1000
mass:0.566894
g:1|0
c:13.4164
CFL:0.2

functions 1 8 string
time:T=(T+dt)
continuity:rho_dot=((-(rho*sph_D00(v,mass,rho,Wp52220)))+(((0.1*c)*h)*sph_L00(rho,mass,rho,Wp52220)))
irho:rho=(rho+int1((rho_dot,dt))
EOS:p=(((c^2)*(rho-rho0))+10000)
euler:a=if((gid,(0*v),(((-((1/rho)*sph_G11(p,mass,rho,Wp52220)))+(0.01*sph_L00(v,mass,rho,Wp52220)))+g))
vel:v=(v+int1((a,dt))
pos:r=(r+int1((v,dt))
new_dt:dt=(CFL*min((sqrt(((h/fmax(magnitude((a)))),(h/c)))

POINTS 2798 float
-0.5125 -0.4875 0 -0.5375 -0.4625 0 -0.5375 -0.4875 0 
-0.5125 -0.4625 0 -0.487805 -0.4875 0 -0.487805 -0.4625 0 
-0.463415 -0.4875 0 -0.463415 -0.4625 0 -0.414634 -0.4875 0 
-0.439024 -0.4625 0 -0.414634 -0.4625 0 -0.439024 -0.4875 0 
-0.390244 -0.4625 0 -0.365854 -0.4875 0 -0.390244 -0.4875 0 
-0.365854 -0.4625 0 -0.341463 -0.4875 0 -0.317073 -0.4625 0 
-0.341463 -0.4625 0 -0.317073 -0.4875 0 -0.292683 -0.4875 0 
-0.292683 -0.4625 0 -0.268293 -0.4625 0 -0.268293 -0.4875 0 
-0.243902 -0.4875 0 -0.243902 -0.4625 0 -0.219512 -0.4625 0 
-0.219512 -0.4875 0 -0.170732 -0.4625 0 -0.170732 -0.4875 0 
-0.195122 -0.4625 0 -0.195122 -0.4875 0 -0.121951 -0.4875 0 
-0.146341 -0.4625 0 -0.146341 -0.4875 0 -0.121951 -0.4625 0 
-0.097561 -0.4625 0 -0.097561 -0.4875 0 -0.0731707 -0.4625 0 
-0.0731707 -0.4875 0 -0.0243903 -0.4875 0 -0.0487805 -0.4875 0 
-1.86265e-08 -0.4625 0 -1.86265e-08 -0.4875 0 -0.0487805 -0.4625 0 
-0.0243903 -0.4625 0 0.0487805 -0.4875 0 0.0243902 -0.4625 0 
0.0487805 -0.4625 0 0.0243902 -0.4875 0 0.097561 -0.4625 0 
0.0731707 -0.4875 0 0.097561 -0.4875 0 0.0731707 -0.4625 0 
0.121951 -0.4875 0 0.121951 -0.4625 0 0.146341 -0.4875 0 
0.146341 -0.4625 0 0.195122 -0.4875 0 0.170732 -0.4625 0 
0.170732 -0.4875 0 0.195122 -0.4625 0 0.219512 -0.4875 0 
0.243902 -0.4625 0 0.219512 -0.4625 0 0.243902 -0.4875 0 
0.268293 -0.4875 0 0.268293 -0.4625 0 0.292683 -0.4625 0 
0.292683 -0.4875 0 0.317073 -0.4625 0 0.341463 -0.4875 0 
0.341463 -0.4625 0 0.317073 -0.4875 0 0.365854 -0.4625 0 
0.390244 -0.4625 0 0.390244 -0.4875 0 0.365854 -0.4875 0 
0.439024 -0.4625 0 0.439024 -0.4875 0 0.414634 -0.4625 0 
0.414634 -0.4875 0 0.463415 -0.4875 0 0.487805 -0.4625 0 
0.487805 -0.4875 0 0.463415 -0.4625 0 0.5375 -0.4875 0 
0.5125 -0.4625 0 0.5375 -0.4625 0 0.5125 -0.4875 0 
-0.5125 -0.4125 0 -0.5125 -0.4375 0 -0.5375 -0.4375 0 
-0.5375 -0.4125 0 -0.463913 -0.410044 0 -0.487409 -0.437994 0 
-0.487695 -0.413604 0 -0.463109 -0.436593 0 -0.416304 -0.436426 0 
-0.417864 -0.409593 0 -0.439596 -0.436928 0 -0.440852 -0.410802 0 
-0.393651 -0.436318 0 -0.370987 -0.436566 0 -0.350928 -0.410354 0 
-0.373426 -0.409319 0 -0.395515 -0.408876 0 -0.32469 -0.436819 0 
-0.328086 -0.410313 0 -0.301424 -0.437001 0 -0.347885 -0.43694 0 
-0.30499 -0.410749 0 -0.258309 -0.411858 0 -0.277964 -0.437146 0 
-0.281759 -0.411077 0 -0.254141 -0.437424 0 -0.204156 -0.437934 0 
-0.233673 -0.413823 0 -0.229322 -0.438062 0 -0.208311 -0.413916 0 
-0.182592 -0.414311 0 -0.17888 -0.438097 0 -0.156804 -0.414206 0 
-0.153538 -0.43801 0 -0.102639 -0.438373 0 -0.128308 -0.437935 0 
-0.131026 -0.414093 0 -0.104919 -0.415088 0 -0.0519512 -0.415711 0 
-0.0506278 -0.438589 0 -0.0785227 -0.415225 0 -0.0766283 -0.438359 0 
-0.024772 -0.438314 0 -0.0255173 -0.414977 0 0.000532903 -0.43781 0 
0.0254426 -0.437984 0 0.000350924 -0.413703 0 0.0257556 -0.413799 0 
0.049939 -0.437535 0 0.0754924 -0.413136 0 0.0741445 -0.437766 0 
0.0987064 -0.438006 0 0.050727 -0.412738 0 0.125149 -0.413138 0 
0.149903 -0.413879 0 0.147966 -0.438088 0 0.123323 -0.4378 0 
0.100376 -0.413587 0 0.17505 -0.413623 0 0.172755 -0.437924 0 
0.197409 -0.4379 0 0.225338 -0.414152 0 0.222212 -0.438129 0 
0.200203 -0.413614 0 0.247378 -0.438182 0 0.276135 -0.413811 0 
0.297168 -0.437834 0 0.250731 -0.414349 0 0.272471 -0.437995 0 
0.324587 -0.411599 0 0.300825 -0.412935 0 0.344949 -0.437241 0 
0.347948 -0.411636 0 0.321305 -0.437368 0 0.39358 -0.438038 0 
0.368964 -0.437728 0 0.371865 -0.413075 0 0.395897 -0.412927 0 
0.439416 -0.436791 0 0.417071 -0.436061 0 0.418568 -0.408395 0 
0.440379 -0.410125 0 0.463654 -0.413277 0 0.488097 -0.43826 0 
0.488118 -0.41391 0 0.463267 -0.437921 0 0.5375 -0.4375 0 
0.5375 -0.4125 0 0.5125 -0.4375 0 0.5125 -0.4125 0 
-0.5125 -0.3625 0 -0.5125 -0.3875 0 -0.5375 -0.3625 0 
-0.5375 -0.3875 0 -0.488265 -0.363378 0 -0.487973 -0.388749 0 
-0.46494 -0.382758 0 -0.465995 -0.35459 0 -0.420424 -0.355826 0 
-0.419215 -0.382663 0 -0.44347 -0.358285 0 -0.442183 -0.384514 0 
-0.352822 -0.383292 0 -0.375727 -0.353235 0 -0.374891 -0.381411 0 
-0.39782 -0.353939 0 -0.353899 -0.355827 0 -0.396815 -0.381271 0 
-0.30709 -0.384444 0 -0.330176 -0.383653 0 -0.331404 -0.356933 0 
-0.30827 -0.358211 0 -0.285034 -0.358398 0 -0.260722 -0.385824 0 
-0.261869 -0.35956 0 -0.283907 -0.384761 0 -0.212273 -0.366197 0 
-0.211004 -0.390054 0 -0.237653 -0.365078 0 -0.23635 -0.389474 0 
-0.160293 -0.367425 0 -0.159129 -0.390717 0 -0.186415 -0.367489 0 
-0.185159 -0.39084 0 -0.134186 -0.367075 0 -0.10812 -0.368669 0 
-0.106993 -0.391908 0 -0.133168 -0.390549 0 -0.0550727 -0.370781 0 
-0.0818076 -0.369301 0 -0.0806032 -0.392285 0 -0.0538184 -0.393188 0 
-0.0270518 -0.392134 0 -0.0280644 -0.36957 0 -0.00142652 -0.366683 0 
-0.000776142 -0.39004 0 0.0251859 -0.390107 0 0.0249525 -0.366975 0 
0.076699 -0.389195 0 0.0514455 -0.365481 0 0.0779214 -0.366005 0 
0.0509806 -0.388708 0 0.10233 -0.389543 0 0.127468 -0.388544 0 
0.130081 -0.364249 0 0.104252 -0.366016 0 0.180771 -0.365949 0 
0.152281 -0.38985 0 0.17767 -0.38972 0 0.155276 -0.365999 0 
0.231722 -0.366385 0 0.203176 -0.389724 0 0.206325 -0.36603 0 
0.228524 -0.390296 0 0.256825 -0.366697 0 0.253892 -0.390629 0 
0.281828 -0.365057 0 0.27922 -0.389553 0 0.327378 -0.385515 0 
0.30625 -0.36225 0 0.303757 -0.387666 0 0.329848 -0.359393 0 
0.399663 -0.359222 0 0.376616 -0.362964 0 0.350681 -0.386009 0 
0.397924 -0.386608 0 0.353035 -0.360301 0 0.374413 -0.388135 0 
0.441478 -0.382896 0 0.419989 -0.380273 0 0.442917 -0.354979 0 
0.421502 -0.352241 0 0.488229 -0.364722 0 0.488228 -0.38936 0 
0.464095 -0.388099 0 0.4645 -0.362208 0 0.5125 -0.3875 0 
0.5125 -0.3625 0 0.5375 -0.3875 0 0.5375 -0.3625 0 
-0.5125 -0.3125 0 -0.5375 -0.3125 0 -0.5375 -0.3375 0 
-0.5125 -0.3375 0 -0.466886 -0.32564 0 -0.488501 -0.337336 0 
-0.488604 -0.310724 0 -0.444681 -0.332005 0 -0.445491 -0.30537 0 
-0.42165 -0.329117 0 -0.422634 -0.302471 0 -0.376353 -0.325285 0 
-0.398793 -0.327032 0 -0.35477 -0.300159 0 -0.354491 -0.328053 0 
-0.399682 -0.300482 0 -0.309059 -0.306292 0 -0.332454 -0.303542 0 
-0.308856 -0.332129 0 -0.332104 -0.330212 0 -0.285388 -0.332203 0 
-0.261912 -0.333477 0 -0.261171 -0.307919 0 -0.285232 -0.306445 0 
-0.236699 -0.317027 0 -0.211074 -0.318678 0 -0.212089 -0.342435 0 
-0.237624 -0.34087 0 -0.158906 -0.321225 0 -0.185253 -0.320984 0 
-0.159939 -0.344232 0 -0.186182 -0.344203 0 -0.133647 -0.343708 0 
-0.132511 -0.320392 0 -0.106512 -0.322035 0 -0.107598 -0.345377 0 
-0.0813215 -0.346312 0 -0.0786636 -0.300586 0 -0.0802573 -0.323369 0 
-0.05352 -0.32618 0 -0.0545463 -0.34843 0 -0.0518094 -0.303983 0 
-0.000544099 -0.343484 0 -0.0262136 -0.3248 0 -0.0248422 -0.302237 0 
-0.0274068 -0.347119 0 0.025908 -0.344155 0 0.000677319 -0.320247 0 
0.0271278 -0.32143 0 0.0526553 -0.34265 0 0.0811074 -0.320679 0 
0.054134 -0.32002 0 0.079371 -0.343244 0 0.106155 -0.34305 0 
0.132844 -0.340661 0 0.10821 -0.320536 0 0.135453 -0.317718 0 
0.18819 -0.318228 0 0.184484 -0.342105 0 0.15874 -0.342478 0 
0.162029 -0.319435 0 0.238716 -0.317672 0 0.209858 -0.342258 0 
0.21357 -0.318362 0 0.235089 -0.342208 0 0.263127 -0.317364 0 
0.28719 -0.314791 0 0.284376 -0.340221 0 0.259784 -0.342303 0 
0.310531 -0.310546 0 0.333392 -0.306675 0 0.308542 -0.33672 0 
0.331896 -0.333078 0 0.355004 -0.334555 0 0.379513 -0.310995 0 
0.356621 -0.308739 0 0.378346 -0.337391 0 0.444924 -0.326329 0 
0.400788 -0.331151 0 0.401383 -0.303009 0 0.422938 -0.325065 0 
0.46709 -0.306348 0 0.465183 -0.33512 0 0.488521 -0.315129 0 
0.488206 -0.340083 0 0.5125 -0.3375 0 0.5375 -0.3125 0 
0.5125 -0.3125 0 0.5375 -0.3375 0 -0.5125 -0.2625 0 
-0.5125 -0.2875 0 -0.5375 -0.2625 0 -0.5375 -0.2875 0 
-0.465819 -0.266113 0 -0.487931 -0.25836 0 -0.488349 -0.284122 0 
-0.466915 -0.296052 0 -0.445522 -0.277975 0 -0.400219 -0.273886 0 
-0.423086 -0.275616 0 -0.37691 -0.297885 0 -0.377452 -0.271009 0 
-0.354949 -0.272458 0 -0.332552 -0.276834 0 -0.309129 -0.280773 0 
-0.308397 -0.255628 0 -0.332122 -0.250382 0 -0.258416 -0.2584 0 
-0.284776 -0.281269 0 -0.283598 -0.256881 0 -0.260226 -0.28292 0 
-0.209859 -0.29496 0 -0.233885 -0.270093 0 -0.235563 -0.293418 0 
-0.208209 -0.271024 0 -0.182848 -0.274527 0 -0.157677 -0.298329 0 
-0.156778 -0.275427 0 -0.155268 -0.252471 0 -0.184079 -0.297835 0 
-0.181412 -0.250904 0 -0.131208 -0.297185 0 -0.128718 -0.250696 0 
-0.102332 -0.25181 0 -0.130412 -0.273815 0 -0.105048 -0.298792 0 
-0.104602 -0.275341 0 -0.0786212 -0.277542 0 -0.0521981 -0.28147 0 
-0.0505174 -0.259123 0 -0.0767019 -0.254274 0 -0.0222302 -0.257779 0 
-0.0254169 -0.279694 0 0.00155321 -0.296906 0 0.00562139 -0.251193 0 
0.0291467 -0.276722 0 0.0316265 -0.254146 0 0.00217314 -0.274049 0 
0.0283479 -0.298957 0 0.0565062 -0.275297 0 0.0587566 -0.253048 0 
0.0837487 -0.275911 0 0.0861463 -0.253664 0 0.0556643 -0.297584 0 
0.0827966 -0.298256 0 0.111114 -0.276163 0 0.113288 -0.253916 0 
0.137502 -0.295167 0 0.11005 -0.298282 0 0.138573 -0.272752 0 
0.164484 -0.296753 0 0.165613 -0.274209 0 0.165786 -0.251404 0 
0.191828 -0.270708 0 0.190951 -0.294502 0 0.217758 -0.270925 0 
0.24485 -0.2696 0 0.241844 -0.293163 0 0.216517 -0.294431 0 
0.270166 -0.266411 0 0.292055 -0.260267 0 0.266612 -0.292113 0 
0.290117 -0.288255 0 0.312236 -0.283283 0 0.335243 -0.280476 0 
[...]
POINT_DATA 2798
SCALARS id float
LOOKUP_TABLE default
2620 2601 2600 2621 2640 2641 2642 2643 2646 
2645 2647 2644 2649 2650 2648 2651 2652 2655 
2653 2654 2656 2657 2659 2658 2660 2661 2663 
2662 2667 2666 2665 2664 2670 2669 2668 2671 
2673 2672 2675 2674 2678 2676 2681 2680 2677 
2679 2684 2683 2685 2682 2689 2686 2688 2687 
2690 2691 2692 2693 2696 2695 2694 2697 2698 
2701 2699 2700 2702 2703 2705 2704 2707 2708 
2709 2706 2711 2713 2712 2710 2717 2716 2715 
2714 2718 2721 2720 2719 2742 2723 2743 2722 
2623 2622 2602 2603 1679 1660 1661 1678 1714 
1715 1696 1697 1732 1750 1769 1751 1733 1786 
1787 1804 1768 1805 1841 1822 1823 1840 1876 
1859 1858 1877 1895 1894 1913 1912 1948 1930 
1931 1949 1985 1984 1967 1966 2002 2003 2020 
2038 2021 2039 2056 2075 2074 2092 2057 2111 
2129 2128 2110 2093 2147 2146 2164 2183 2182 
2165 2200 2219 2236 2201 2218 2255 2237 2272 
2273 2254 2308 2290 2291 2309 2344 2326 2327 
2345 2363 2380 2381 2362 2744 2745 2724 2725 
2625 2624 2605 2604 1663 1662 1680 1681 1717 
1716 1699 1698 1770 1753 1752 1735 1771 1734 
1806 1788 1789 1807 1825 1842 1843 1824 1879 
1878 1861 1860 1915 1914 1897 1896 1933 1951 
1950 1932 1987 1969 1968 1986 2004 2005 2023 
2022 2040 2041 2076 2059 2077 2058 2094 2112 
2113 2095 2149 2130 2148 2131 2185 2166 2167 
2184 2203 2202 2221 2220 2256 2239 2238 2257 
2311 2293 2274 2310 2275 2292 2346 2328 2347 
2329 2383 2382 2364 2365 2726 2727 2746 2747 
2627 2607 2606 2626 1682 1664 1665 1700 1701 
1718 1719 1754 1736 1773 1772 1737 1809 1791 
1808 1790 1826 1844 1845 1827 1863 1881 1880 
1862 1917 1899 1916 1898 1934 1935 1953 1952 
1970 1972 1971 1989 1988 1990 2024 2007 2008 
2006 2042 2025 2043 2060 2079 2061 2078 2096 
2114 2097 2115 2151 2150 2132 2133 2187 2168 
2169 2186 2205 2223 2222 2204 2241 2259 2240 
2258 2276 2295 2277 2294 2348 2312 2313 2330 
2367 2366 2385 2384 2728 2749 2729 2748 2629 
2628 2609 2608 1684 1667 1666 1683 1702 1738 
1720 1755 1756 1774 1792 1810 1811 1793 1847 
1828 1829 1846 1882 1865 1864 1883 1901 1918 
1919 1920 1900 1902 1936 1938 1956 1937 1954 
1955 1973 1991 1992 1974 2010 2009 2026 2028 
2045 2046 2027 2044 2063 2064 2081 2082 2062 
2080 2099 2100 2116 2098 2117 2134 2135 2136 
2153 2152 2171 2189 2188 2170 2207 2225 2206 
2224 2242 2260 2261 2243 2296 2278 2279 2297 
2350 2332 2314 2331 2349 2368 2387 2386 2750 
2730 2751 2731 2610 2630 2631 2611 1668 1685 
1669 1686 1722 1704 1721 1703 1739 1740 1776 
1758 1775 1757 1812 1813 1794 1831 1848 1830 
1849 1885 1866 1884 1867 1904 1922 1903 1921 
1940 1958 1939 1957 1976 1975 1994 2012 2011 
2030 1993 2048 2047 2029 2066 2083 2065 2084 
2102 2103 2101 2118 2119 2154 2120 2137 2138 
2156 2173 2172 2155 2208 2191 2209 2226 2190 
2245 2262 2244 2227 2263 2280 2281 2298 2334 
2316 2333 2315 2370 2352 2351 2369 2388 2752 
2753 2733 2732 2632 2633 2613 2612 1671 1670 
1687 1742 1723 1705 1706 1724 1741 1778 1777 
1760 1759 1795 1815 1814 1796 1832 1850 1833 
1851 1868 1869 1887 1886 1870 1905 1923 1906 
1924 1942 1941 1959 1995 1960 1978 1977 2013 
1997 2014 1996 2015 2049 2031 2032 2068 2067 
2050 2087 2086 2085 2104 2122 2121 2105 2174 
2157 2139 2140 2193 2210 2175 2192 2229 2228 
2246 2299 2282 2300 2264 2335 2317 2318 2336 
2389 2371 2354 2390 2353 2754 2755 2735 2734 
2634 2615 2614 2635 1672 1688 1689 1673 1708 
1707 1726 1725 1743 1779 1762 1744 1761 1816 
1797 1780 1798 1834 1835 1852 1854 1888 1871 
1872 1853 1907 1889 1890 1908 1926 1925 1943 
1909 1961 1927 1944 1945 1980 1962 1979 1998 
2016 1999 1981 1982 2017 2033 2034 2051 2052 
2053 2069 2070 2071 2088 2089 2123 2106 2107 
2158 2159 2141 2124 2194 2176 2211 2195 2177 
2230 2247 2248 2212 2284 2265 2283 2266 2337 
2301 2319 2391 2355 2372 2373 2736 2737 2757 
2756 2616 2617 2636 2637 1690 1674 1675 1691 
1746 1727 1728 1709 1764 1763 1745 1729 1747 
1781 1782 1783 1799 1784 1800 1817 1818 1836 
1819 1855 1801 1767 1873 80 1837 1785 1891 
1856 1874 1892 160 1820 1561 1910 1928 1963 
1803 1964 1857 1838 2000 1946 1821 1839 2036 
1875 1911 1893 2035 1929 2018 2054 2090 2072 
340 2142 2125 2143 2161 2160 2178 2249 2213 
2196 2231 2214 2285 2250 2267 2232 2303 2339 
2302 2320 2356 2374 2338 2392 2759 2738 2758 
2739 2566 2567 2564 2565 2570 2568 2569 2571 
2574 2572 2575 2573 2576 2578 2579 2577 2580 
2583 2582 2581 2585 2587 2584 2586 2588 2590 
2591 2589 2592 2595 2593 2594 2598 2596 2597 
2599 2618 2639 2619 2638 1677 1676 1692 1710 
1400 1694 1693 1711 1695 1480 1730 1765 1500 
1712 1520 1540 1766 1748 1560 1321 1713 1580 
1731 60 1749 1802 1600 20 1620 40 1421 
1521 100 1541 1640 0 1461 1481 1501 1522 
120 1502 1 1542 1581 140 1601 1543 180 
1621 21 1641 200 220 240 320 280 260 
1947 300 161 181 2108 201 1965 162 141 
2197 2126 2144 2179 2198 2216 2162 2233 2215 
2268 2251 2055 2393 2357 2234 2304 2321 2761 
2741 2740 2760 2765 2764 2763 2762 2767 2769 
2766 2768 2772 2771 2770 2773 2777 2775 2776 
2774 2780 2778 2781 2779 2783 2785 2784 2782 
2787 2789 2788 2786 2793 2791 2790 2792 2794 
2795 2796 2797 701 780 2379 860 1020 2397 
820 721 880 1060 1080 900 1100 920 1140 
960 1120 940 881 1160 1180 861 980 1000 
1220 1200 1001 1240 1040 1260 1041 981 1300 
1280 1061 1081 1320 1101 1340 1360 1121 1102 
1141 1161 1380 1122 1440 1181 1420 1142 1162 
1221 1241 1460 1201 1182 1202 1261 1222 1281 
1242 1301 1262 1243 1341 1361 1282 1302 1381 
1322 1401 1382 1362 1363 1342 1441 1442 1402 
1383 1482 1462 1422 1562 1544 1503 1523 1483 
1564 1582 1583 1602 1563 1642 61 2 41 
1622 101 81 121 42 102 82 122 1983 
142 182 143 103 2180 2001 360 2019 2073 
400 440 2037 2269 2286 2091 2322 2287 2305 
2252 2109 2375 2340 2270 2358 2163 2394 2323 
2376 2324 2359 2341 2395 2306 2342 2360 2377 
640 2235 2199 2217 2396 2253 680 2307 700 
2271 840 660 720 740 2325 800 2378 2343 
2361 2289 761 641 602 760 661 662 642 
702 681 722 762 643 682 703 801 781 
741 841 821 763 782 742 822 783 803 
802 862 843 823 901 842 941 961 902 
882 921 922 942 923 903 962 1021 943 
1002 963 1003 982 1062 983 1022 1063 1023 
1042 1043 1082 1103 1084 1064 1083 1123 1143 
1104 1124 1183 1144 1164 1163 1203 1184 1223 
1204 1263 1244 1224 1264 1284 1304 1303 1283 
1324 1344 1343 1323 1364 1365 1403 1384 1404 
1444 1443 1424 1423 1463 1464 1484 1545 1504 
1524 1603 1623 1604 1565 1584 1643 3 22 
1624 4 23 83 62 64 84 43 63 
123 163 380 104 144 221 420 241 261 
222 203 460 480 500 242 223 281 282 
341 301 321 520 2127 302 2288 540 2145 
560 381 2181 600 362 580 401 421 620 
402 441 462 461 442 481 541 482 521 
501 523 522 561 542 601 581 621 582 
584 622 564 583 563 624 623 603 604 
664 644 663 683 684 705 723 704 744 
743 724 745 725 784 785 765 764 824 
825 804 805 865 864 883 863 844 845 
884 885 905 904 925 944 945 924 964 
965 984 985 1004 1005 1025 1024 1045 1066 
1065 1044 1085 1086 1105 1106 1145 1126 1146 
1125 1165 1166 1205 1186 1185 1206 1245 1226 
1246 1225 1266 1286 1285 1265 1306 1305 1345 
1326 1325 1346 1385 1366 1386 1425 1426 1406 
1405 1465 1445 1446 1485 1466 1505 1525 1526 
1486 1585 1546 1566 1625 1586 1644 1605 6 
1645 24 5 1626 25 26 45 44 85 
65 105 86 183 124 125 145 164 202 
165 184 146 224 204 205 185 244 225 
243 262 283 263 361 264 303 322 304 
342 323 344 324 343 363 403 382 383 
364 423 422 404 424 443 464 444 463 
483 503 502 484 504 524 543 544 562 
585 566 565 546 545 625 605 606 586 
645 666 665 626 646 686 706 685 707 
747 726 727 746 786 787 767 766 807 
826 827 806 866 847 867 846 886 907 
906 887 926 947 927 946 966 967 987 
986 1026 1027 1006 1007 1068 1046 1047 1067 
1107 1087 1088 1108 1148 1147 1127 1128 1168 
1208 1207 1187 1167 1188 1228 1248 1247 1227 
1267 1268 1287 1288 1307 1328 1308 1327 1388 
1368 1348 1347 1387 1367 1407 1428 1427 1447 
1468 1448 1467 1507 1487 1488 1506 1527 1528 
1567 1568 1547 1548 1587 1588 1607 1608 1606 
1646 1647 1627 7 46 27 28 47 66 
87 67 88 106 126 107 148 147 167 
166 127 206 187 186 207 246 245 226 
227 266 265 284 286 285 306 305 325 
346 326 345 366 365 385 384 386 425 
426 405 406 466 445 446 465 485 486 
505 506 525 526 547 568 567 588 587 
607 608 647 648 627 628 667 687 689 
709 688 668 708 729 748 749 728 769 
788 789 768 809 828 829 808 849 848 
868 869 889 908 888 909 948 928 949 
929 989 969 988 968 1009 1028 1008 1029 
1048 1069 1049 1109 1090 1089 1110 1150 1130 
1149 1129 1170 1169 1190 1189 1209 1210 1249 
1250 1230 1229 1289 1269 1290 1270 1309 1329 
1310 1330 1350 1369 1349 1389 1390 1370 1430 
1409 1408 1429 1450 1449 1469 1509 1508 1489 
1529 1549 1550 1569 1570 1589 1609 1590 1649 
1629 1628 1648 8 29 9 30 68 69 
48 49 89 108 109 150 128 129 149 
168 188 189 169 208 228 229 209 249 
248 247 268 267 288 307 287 308 347 
328 327 348 388 368 387 367 428 407 
408 427 468 447 467 448 487 488 508 
507 548 527 528 590 589 569 570 609 
630 610 629 670 650 649 690 710 691 
669 711 750 731 730 751 770 771 790 
791 811 810 830 831 851 871 870 850 
910 911 891 890 931 930 951 950 971 
970 990 991 1010 1030 1011 1031 1051 1050 
1070 1071 1112 1111 1091 1132 1152 1151 1131 
1172 1191 1171 1212 1192 1211 1251 1232 1252 
1231 1291 1271 1331 1311 1351 1391 1371 1410 
1431 1411 1471 1451 1470 1491 1510 1511 1490 
1530 1531 1551 1571 1610 1591 1611 1572 1651 
1631 1630 1650 32 11 10 31 70 51 
50 71 90 91 110 111 131 130 151 
190 191 171 170 231 211 230 210 269 
271 250 251 270 309 311 290 310 291 
289 350 330 329 349 369 390 389 370 
409 410 430 429 470 450 469 449 509 
510 489 490 550 530 549 529 571 572 
593 573 591 592 632 612 631 611 673 
671 653 652 651 672 712 693 692 713 
733 752 753 732 792 793 772 773 832 
813 812 833 873 872 852 853 893 912 
913 892 953 933 952 932 992 972 993 
973 1012 1032 1013 1033 1053 1072 1052 1073 
1093 1113 1092 1133 1153 1173 1193 1213 1233 
1253 1292 1272 1273 1293 1313 1332 1333 1312 
1353 1393 1373 1392 1372 1352 1412 1432 1433 
1413 1472 1473 1453 1452 1512 1513 1492 1493 
1532 1533 1553 1573 1552 1613 1592 1612 1593 
1653 1633 1632 1652 12 13 33 73 72 
52 53 113 112 93 92 132 173 152 
153 133 192 172 213 193 212 233 253 
232 252 293 273 292 272 332 313 312 
331 352 351 373 392 413 391 371 372 
433 411 431 432 412 451 453 473 472 
471 452 491 512 511 492 551 533 532 
552 531 553 615 574 594 595 614 613 
633 634 635 655 654 675 674 715 714 
694 695 754 734 735 755 794 775 774 
795 815 834 835 814 855 875 874 854 
915 895 914 894 935 955 954 934 975 
974 994 995 1014 1015 1034 1035 1075 1055 
1074 1054 1095 1135 1094 1114 1115 1134 1154 
1174 1175 1155 1195 1194 1215 1214 1255 1254 
1235 1234 1294 1275 1274 1315 1295 1314 1335 
1355 1334 1354 1375 1394 1395 1374 1415 1434 
1435 1414 1474 1454 1475 1455 1514 1495 1515 
1535 1494 1575 1574 1555 1554 1534 1614 1615 
1594 1595 1635 1654 1634 1655 14 15 34 
35 54 55 75 74 95 115 135 94 
114 155 154 175 134 174 214 195 194 
215 235 234 254 255 274 275 295 294 
333 314 335 315 334 375 354 353 374 
355 393 415 394 414 454 434 455 435 
494 495 475 474 493 513 535 514 515 
534 575 555 554 596 597 616 617 637 
636 657 656 676 677 696 716 717 697 
737 736 756 757 797 796 776 777 837 
816 836 817 857 856 877 876 896 916 
917 897 937 956 957 936 996 976 977 
997 1017 1016 1037 1036 1057 1056 1097 1077 
1076 1096 1117 1116 1137 1136 1176 1157 1156 
1177 1216 1217 1196 1197 1257 1237 1236 1277 
1256 1276 1297 1316 1317 1296 1336 1337 1357 
1356 1376 1377 1397 1396 1437 1417 1416 1436 
1456 1476 1477 1497 1457 1496 1537 1536 1517 
1516 1576 1556 1557 1577 1597 1616 1596 1617 
1636 1637 1657 1656 16 17 36 37 57 
56 76 77 96 97 116 117 137 136 
177 157 176 156 197 217 216 196 237 
236 257 256 276 297 296 277 317 336 
337 316 357 356 377 376 395 417 396 
397 416 437 436 457 456 496 477 497 
476 517 536 537 516 577 576 557 556 
919 939 638 618 678 979 658 959 698 
1019 999 718 1039 758 1059 738 1099 778 
798 1079 818 838 1139 1119 1199 1159 858 
878 1179 898 1219 1239 918 1279 1259 958 
978 938 1018 1299 1319 998 1058 1339 1359 
1038 1379 1098 1078 1399 1138 1419 1439 1118 
1459 1178 1158 1479 1499 1238 1198 1519 1218 
1539 1258 1559 1579 1278 1619 1318 1298 1599 
1639 1659 1358 1338 39 1398 59 1378 19 
1458 99 79 1438 1418 1478 1498 139 119 
159 1518 179 1538 199 219 1578 1558 1598 
1618 259 239 1658 1638 299 18 279 319 
339 58 38 78 379 359 98 399 118 
138 419 439 459 178 158 198 218 519 
499 479 238 258 559 278 539 318 579 
298 599 338 619 639 378 659 358 699 
398 679 418 739 438 719 458 478 759 
779 498 819 799 538 518 578 558 839 
859 598 879 899 2401 2399 2400 2398 2402 
2405 2403 2404 2406 2408 2407 2409 2412 2413 
2411 2410 2414 2417 2415 2416 2419 2420 2421 
2418 2422 2424 2425 2423 2427 2426 2429 2428 
2431 2430 2434 2435 2432 2433 2437 2438 2436 
2439 2441 2443 2442 2440 2444 2447 2446 2445 
2451 2449 2450 2448 2455 2454 2452 2453 2459 
2457 2456 2458 2463 2461 2460 2462 2464 2466 
2467 2465 2469 2471 2470 2468 2472 2473 2475 
2474 2481 2476 2480 2478 2477 2479 2485 2484 
2483 2482 2489 2486 2488 2487 2493 2492 2490 
2491 2497 2496 2495 2494 2501 2498 2500 2499 
2504 2502 2505 2503 2509 2508 2507 2506 2511 
2512 2513 2510 2516 2514 2515 2517 2520 2519 
2518 2521 2522 2523 2524 2525 2527 2528 2529 
2526 2531 2530 2533 2532 2534 2535 2536 2537 
2538 2539 2541 2540 2542 2543 2544 2545 2546 
2547 2548 2551 2550 2549 2554 2555 2553 2552 
2558 2556 2557 2559 2560 2561 2562 2563 
FIELD FieldData 7
r 3 2798 float
-0.5125 -0.4875 0 -0.5375 -0.4625 0 -0.5375 -0.4875 0 
-0.5125 -0.4625 0 -0.487805 -0.4875 0 -0.487805 -0.4625 0 
-0.463415 -0.4875 0 -0.463415 -0.4625 0 -0.414634 -0.4875 0 
-0.439024 -0.4625 0 -0.414634 -0.4625 0 -0.439024 -0.4875 0 
-0.390244 -0.4625 0 -0.365854 -0.4875 0 -0.390244 -0.4875 0 
-0.365854 -0.4625 0 -0.341463 -0.4875 0 -0.317073 -0.4625 0 
-0.341463 -0.4625 0 -0.317073 -0.4875 0 -0.292683 -0.4875 0 
-0.292683 -0.4625 0 -0.268293 -0.4625 0 -0.268293 -0.4875 0 
-0.243902 -0.4875 0 -0.243902 -0.4625 0 -0.219512 -0.4625 0 
-0.219512 -0.4875 0 -0.170732 -0.4625 0 -0.170732 -0.4875 0 
-0.195122 -0.4625 0 -0.195122 -0.4875 0 -0.121951 -0.4875 0 
-0.146341 -0.4625 0 -0.146341 -0.4875 0 -0.121951 -0.4625 0 
-0.097561 -0.4625 0 -0.097561 -0.4875 0 -0.0731707 -0.4625 0 
-0.0731707 -0.4875 0 -0.0243903 -0.4875 0 -0.0487805 -0.4875 0 
-1.86265e-08 -0.4625 0 -1.86265e-08 -0.4875 0 -0.0487805 -0.4625 0 
-0.0243903 -0.4625 0 0.0487805 -0.4875 0 0.0243902 -0.4625 0 
0.0487805 -0.4625 0 0.0243902 -0.4875 0 0.097561 -0.4625 0 
0.0731707 -0.4875 0 0.097561 -0.4875 0 0.0731707 -0.4625 0 
0.121951 -0.4875 0 0.121951 -0.4625 0 0.146341 -0.4875 0 
0.146341 -0.4625 0 0.195122 -0.4875 0 0.170732 -0.4625 0 
0.170732 -0.4875 0 0.195122 -0.4625 0 0.219512 -0.4875 0 
0.243902 -0.4625 0 0.219512 -0.4625 0 0.243902 -0.4875 0 
0.268293 -0.4875 0 0.268293 -0.4625 0 0.292683 -0.4625 0 
0.292683 -0.4875 0 0.317073 -0.4625 0 0.341463 -0.4875 0 
0.341463 -0.4625 0 0.317073 -0.4875 0 0.365854 -0.4625 0 
0.390244 -0.4625 0 0.390244 -0.4875 0 0.365854 -0.4875 0 
0.439024 -0.4625 0 0.439024 -0.4875 0 0.414634 -0.4625 0 
0.414634 -0.4875 0 0.463415 -0.4875 0 0.487805 -0.4625 0 
0.487805 -0.4875 0 0.463415 -0.4625 0 0.5375 -0.4875 0 
0.5125 -0.4625 0 0.5375 -0.4625 0 0.5125 -0.4875 0 
-0.5125 -0.4125 0 -0.5125 -0.4375 0 -0.5375 -0.4375 0 
-0.5375 -0.4125 0 -0.463913 -0.410044 0 -0.487409 -0.437994 0 
-0.487695 -0.413604 0 -0.463109 -0.436593 0 -0.416304 -0.436426 0 
-0.417864 -0.409593 0 -0.439596 -0.436928 0 -0.440852 -0.410802 0 
-0.393651 -0.436318 0 -0.370987 -0.436566 0 -0.350928 -0.410354 0 
-0.373426 -0.409319 0 -0.395515 -0.408876 0 -0.32469 -0.436819 0 
-0.328086 -0.410313 0 -0.301424 -0.437001 0 -0.347885 -0.43694 0 
-0.30499 -0.410749 0 -0.258309 -0.411858 0 -0.277964 -0.437146 0 
-0.281759 -0.411077 0 -0.254141 -0.437424 0 -0.204156 -0.437934 0 
-0.233673 -0.413823 0 -0.229322 -0.438062 0 -0.208311 -0.413916 0 
-0.182592 -0.414311 0 -0.17888 -0.438097 0 -0.156804 -0.414206 0 
-0.153538 -0.43801 0 -0.102639 -0.438373 0 -0.128308 -0.437935 0 
-0.131026 -0.414093 0 -0.104919 -0.415088 0 -0.0519512 -0.415711 0 
-0.0506278 -0.438589 0 -0.0785227 -0.415225 0 -0.0766283 -0.438359 0 
-0.024772 -0.438314 0 -0.0255173 -0.414977 0 0.000532903 -0.43781 0 
0.0254426 -0.437984 0 0.000350924 -0.413703 0 0.0257556 -0.413799 0 
0.049939 -0.437535 0 0.0754924 -0.413136 0 0.0741445 -0.437766 0 
0.0987064 -0.438006 0 0.050727 -0.412738 0 0.125149 -0.413138 0 
0.149903 -0.413879 0 0.147966 -0.438088 0 0.123323 -0.4378 0 
0.100376 -0.413587 0 0.17505 -0.413623 0 0.172755 -0.437924 0 
0.197409 -0.4379 0 0.225338 -0.414152 0 0.222212 -0.438129 0 
0.200203 -0.413614 0 0.247378 -0.438182 0 0.276135 -0.413811 0 
0.297168 -0.437834 0 0.250731 -0.414349 0 0.272471 -0.437995 0 
0.324587 -0.411599 0 0.300825 -0.412935 0 0.344949 -0.437241 0 
0.347948 -0.411636 0 0.321305 -0.437368 0 0.39358 -0.438038 0 
0.368964 -0.437728 0 0.371865 -0.413075 0 0.395897 -0.412927 0 
0.439416 -0.436791 0 0.417071 -0.436061 0 0.418568 -0.408395 0 
0.440379 -0.410125 0 0.463654 -0.413277 0 0.488097 -0.43826 0 
0.488118 -0.41391 0 0.463267 -0.437921 0 0.5375 -0.4375 0 
0.5375 -0.4125 0 0.5125 -0.4375 0 0.5125 -0.4125 0 
-0.5125 -0.3625 0 -0.5125 -0.3875 0 -0.5375 -0.3625 0 
-0.5375 -0.3875 0 -0.488265 -0.363378 0 -0.487973 -0.388749 0 
-0.46494 -0.382758 0 -0.465995 -0.35459 0 -0.420424 -0.355826 0 
-0.419215 -0.382663 0 -0.44347 -0.358285 0 -0.442183 -0.384514 0 
-0.352822 -0.383292 0 -0.375727 -0.353235 0 -0.374891 -0.381411 0 
-0.39782 -0.353939 0 -0.353899 -0.355827 0 -0.396815 -0.381271 0 
-0.30709 -0.384444 0 -0.330176 -0.383653 0 -0.331404 -0.356933 0 
-0.30827 -0.358211 0 -0.285034 -0.358398 0 -0.260722 -0.385824 0 
-0.261869 -0.35956 0 -0.283907 -0.384761 0 -0.212273 -0.366197 0 
-0.211004 -0.390054 0 -0.237653 -0.365078 0 -0.23635 -0.389474 0 
-0.160293 -0.367425 0 -0.159129 -0.390717 0 -0.186415 -0.367489 0 
-0.185159 -0.39084 0 -0.134186 -0.367075 0 -0.10812 -0.368669 0 
-0.106993 -0.391908 0 -0.133168 -0.390549 0 -0.0550727 -0.370781 0 
-0.0818076 -0.369301 0 -0.0806032 -0.392285 0 -0.0538184 -0.393188 0 
-0.0270518 -0.392134 0 -0.0280644 -0.36957 0 -0.00142652 -0.366683 0 
-0.000776142 -0.39004 0 0.0251859 -0.390107 0 0.0249525 -0.366975 0 
0.076699 -0.389195 0 0.0514455 -0.365481 0 0.0779214 -0.366005 0 
0.0509806 -0.388708 0 0.10233 -0.389543 0 0.127468 -0.388544 0 
0.130081 -0.364249 0 0.104252 -0.366016 0 0.180771 -0.365949 0 
0.152281 -0.38985 0 0.17767 -0.38972 0 0.155276 -0.365999 0 
0.231722 -0.366385 0 0.203176 -0.389724 0 0.206325 -0.36603 0 
0.228524 -0.390296 0 0.256825 -0.366697 0 0.253892 -0.390629 0 
0.281828 -0.365057 0 0.27922 -0.389553 0 0.327378 -0.385515 0 
0.30625 -0.36225 0 0.303757 -0.387666 0 0.329848 -0.359393 0 
0.399663 -0.359222 0 0.376616 -0.362964 0 0.350681 -0.386009 0 
0.397924 -0.386608 0 0.353035 -0.360301 0 0.374413 -0.388135 0 
0.441478 -0.382896 0 0.419989 -0.380273 0 0.442917 -0.354979 0 
0.421502 -0.352241 0 0.488229 -0.364722 0 0.488228 -0.38936 0 
0.464095 -0.388099 0 0.4645 -0.362208 0 0.5125 -0.3875 0 
0.5125 -0.3625 0 0.5375 -0.3875 0 0.5375 -0.3625 0 
-0.5125 -0.3125 0 -0.5375 -0.3125 0 -0.5375 -0.3375 0 
-0.5125 -0.3375 0 -0.466886 -0.32564 0 -0.488501 -0.337336 0 
-0.488604 -0.310724 0 -0.444681 -0.332005 0 -0.445491 -0.30537 0 
-0.42165 -0.329117 0 -0.422634 -0.302471 0 -0.376353 -0.325285 0 
-0.398793 -0.327032 0 -0.35477 -0.300159 0 -0.354491 -0.328053 0 
-0.399682 -0.300482 0 -0.309059 -0.306292 0 -0.332454 -0.303542 0 
-0.308856 -0.332129 0 -0.332104 -0.330212 0 -0.285388 -0.332203 0 
-0.261912 -0.333477 0 -0.261171 -0.307919 0 -0.285232 -0.306445 0 
-0.236699 -0.317027 0 -0.211074 -0.318678 0 -0.212089 -0.342435 0 
-0.237624 -0.34087 0 -0.158906 -0.321225 0 -0.185253 -0.320984 0 
-0.159939 -0.344232 0 -0.186182 -0.344203 0 -0.133647 -0.343708 0 
-0.132511 -0.320392 0 -0.106512 -0.322035 0 -0.107598 -0.345377 0 
-0.0813215 -0.346312 0 -0.0786636 -0.300586 0 -0.0802573 -0.323369 0 
-0.05352 -0.32618 0 -0.0545463 -0.34843 0 -0.0518094 -0.303983 0 
-0.000544099 -0.343484 0 -0.0262136 -0.3248 0 -0.0248422 -0.302237 0 
-0.0274068 -0.347119 0 0.025908 -0.344155 0 0.000677319 -0.320247 0 