# vtk DataFile Version 4.0
vtk output
ASCII
DATASET POLYDATA
FIELD FieldData 4
domain 1 3 string
domain_min:-20|-15
domain_max:20|15
cell_size:0.05

variables 1 2 string
dt:0.000372678
T:1.90167

constants 1 10 string
xsize:2
ysize:1
csize:0.05
dx:0.0238095
h:0.025
rho0:1000
mass:0.566894
g:1|0
c:13.4164
CFL:0.2

functions 1 8 string
time:T=(T+dt)
continuity:rho_dot=((-(rho*sph_D00(v,mass,rho,Wp52220)))+(((0.1*c)*h)*sph_L00(rho,mass,rho,Wp52220)))
irho:rho=(rho+int1((rho_dot,dt))
EOS:p=(((c^2)*(rho-rho0))+10000)
euler:a=if((gid,(0*v),(((-((1/rho)*sph_G11(p,mass,rho,Wp52220)))+(0.01*sph_L00(v,mass,rho,Wp52220)))+g))
vel:v=(v+int1((a,dt))
pos:r=(r+int1((v,dt))
new_dt:dt=(CFL*min((sqrt(((h/fmax(magnitude((a)))),(h/c)))

POINTS 2798 float
-0.5375 -0.4625 0 -0.5125 -0.4875 0 -0.5125 -0.4625 0 
-0.5375 -0.4875 0 -0.487805 -0.4875 0 -0.463415 -0.4625 0 
-0.487805 -0.4625 0 -0.463415 -0.4875 0 -0.439024 -0.4875 0 
-0.439024 -0.4625 0 -0.414634 -0.4625 0 -0.414634 -0.4875 0 
-0.365854 -0.4625 0 -0.365854 -0.4875 0 -0.390244 -0.4625 0 
-0.390244 -0.4875 0 -0.317073 -0.4625 0 -0.341463 -0.4875 0 
-0.317073 -0.4875 0 -0.341463 -0.4625 0 -0.268293 -0.4875 0 
-0.292683 -0.4625 0 -0.268293 -0.4625 0 -0.292683 -0.4875 0 
-0.219512 -0.4625 0 -0.243902 -0.4875 0 -0.219512 -0.4875 0 
-0.243902 -0.4625 0 -0.170732 -0.4875 0 -0.195122 -0.4875 0 
-0.170732 -0.4625 0 -0.195122 -0.4625 0 -0.146341 -0.4875 0 
-0.121951 -0.4625 0 -0.121951 -0.4875 0 -0.146341 -0.4625 0 
-0.097561 -0.4625 0 -0.0731707 -0.4875 0 -0.097561 -0.4875 0 
-0.0731707 -0.4625 0 -0.0487805 -0.4875 0 -1.86265e-08 -0.4875 0 
-0.0243903 -0.4875 0 -0.0243903 -0.4625 0 -1.86265e-08 -0.4625 0 
-0.0487805 -0.4625 0 0.0487805 -0.4875 0 0.0243902 -0.4625 0 
0.0243902 -0.4875 0 0.0487805 -0.4625 0 0.0731707 -0.4875 0 
0.0731707 -0.4625 0 0.097561 -0.4625 0 0.097561 -0.4875 0 
0.121951 -0.4625 0 0.146341 -0.4875 0 0.121951 -0.4875 0 
0.146341 -0.4625 0 0.195122 -0.4625 0 0.170732 -0.4625 0 
0.170732 -0.4875 0 0.195122 -0.4875 0 0.219512 -0.4625 0 
0.243902 -0.4875 0 0.243902 -0.4625 0 0.219512 -0.4875 0 
0.268293 -0.4625 0 0.292683 -0.4875 0 0.268293 -0.4875 0 
0.292683 -0.4625 0 0.341463 -0.4625 0 0.341463 -0.4875 0 
0.317073 -0.4875 0 0.317073 -0.4625 0 0.365854 -0.4875 0 
0.390244 -0.4875 0 0.365854 -0.4625 0 0.390244 -0.4625 0 
0.439024 -0.4625 0 0.414634 -0.4625 0 0.439024 -0.4875 0 
0.414634 -0.4875 0 0.463415 -0.4625 0 0.463415 -0.4875 0 
0.487805 -0.4625 0 0.487805 -0.4875 0 0.5125 -0.4625 0 
0.5375 -0.4625 0 0.5125 -0.4875 0 0.5375 -0.4875 0 
-0.5125 -0.4125 0 -0.5375 -0.4375 0 -0.5125 -0.4375 0 
-0.5375 -0.4125 0 -0.468541 -0.439242 0 -0.490846 -0.432381 0 
-0.454328 -0.413797 0 -0.478386 -0.410879 0 -0.410388 -0.413632 0 
-0.431363 -0.405574 0 -0.443956 -0.435952 0 -0.422025 -0.436575 0 
-0.36195 -0.405072 0 -0.351481 -0.427276 0 -0.396823 -0.438258 0 
-0.370206 -0.439341 0 -0.384291 -0.416203 0 -0.333094 -0.439431 0 
-0.325009 -0.413906 0 -0.308293 -0.436303 0 -0.300847 -0.409754 0 
-0.276472 -0.412655 0 -0.285364 -0.436981 0 -0.261247 -0.437873 0 
-0.254672 -0.408577 0 -0.228312 -0.409446 0 -0.218277 -0.437946 0 
-0.205037 -0.411852 0 -0.240056 -0.433396 0 -0.194829 -0.436091 0 
-0.182966 -0.406617 0 -0.160539 -0.411728 0 -0.173117 -0.435847 0 
-0.102675 -0.436641 0 -0.149734 -0.437534 0 -0.126243 -0.437128 0 
-0.136931 -0.411672 0 -0.112616 -0.4119 0 -0.0571039 -0.438261 0 
-0.0810487 -0.435713 0 -0.0911929 -0.406167 0 -0.0684913 -0.412864 0 
-0.0339911 -0.435969 0 -0.0449349 -0.410914 0 -0.0110038 -0.438251 0 
-0.0212694 -0.410601 0 0.0345946 -0.436449 0 0.0128492 -0.435808 0 
0.0376337 -0.412587 0 0.002182 -0.413246 0 0.0586196 -0.438236 0 
0.0856809 -0.408127 0 0.0821493 -0.436472 0 0.0632883 -0.413424 0 
0.149498 -0.435847 0 0.103635 -0.435564 0 0.132919 -0.41222 0 
0.109166 -0.410209 0 0.126488 -0.437912 0 0.196706 -0.437771 0 
0.172298 -0.437734 0 0.158364 -0.410461 0 0.181985 -0.413367 0 
0.234563 -0.415235 0 0.208695 -0.415618 0 0.22263 -0.438584 0 
0.248725 -0.439115 0 0.261326 -0.418324 0 0.27668 -0.438686 0 
0.290273 -0.415672 0 0.316994 -0.416989 0 0.302654 -0.439067 0 
0.339905 -0.409714 0 0.329497 -0.438138 0 0.396114 -0.425975 0 
0.384509 -0.404734 0 0.363549 -0.416149 0 0.353102 -0.437532 0 
0.379422 -0.44028 0 0.435912 -0.431395 0 0.414561 -0.440934 0 
0.418454 -0.412388 0 0.490073 -0.409159 0 0.471922 -0.422141 0 
0.488517 -0.439175 0 0.456758 -0.441187 0 0.45132 -0.410068 0 
0.5125 -0.4375 0 0.5125 -0.4125 0 0.5375 -0.4375 0 
0.5375 -0.4125 0 -0.5125 -0.3875 0 -0.5125 -0.3625 0 
-0.5375 -0.3625 0 -0.5375 -0.3875 0 -0.49069 -0.392933 0 
-0.47338 -0.37559 0 -0.489892 -0.359572 0 -0.454853 -0.389605 0 
-0.451601 -0.359538 0 -0.433588 -0.376325 0 -0.411853 -0.385312 0 
-0.409747 -0.359786 0 -0.351056 -0.362132 0 -0.364602 -0.380958 0 
-0.385328 -0.366633 0 -0.389647 -0.392232 0 -0.318345 -0.354476 0 
-0.338987 -0.396365 0 -0.309096 -0.387184 0 -0.330534 -0.374249 0 
-0.29525 -0.36667 0 -0.260312 -0.378281 0 -0.273281 -0.355436 0 
-0.280889 -0.387779 0 -0.208578 -0.386583 0 -0.245289 -0.356902 0 
-0.238628 -0.387609 0 -0.223008 -0.367994 0 -0.195819 -0.357516 0 
-0.161737 -0.360348 0 -0.18559 -0.378769 0 -0.162822 -0.385165 0 
-0.113815 -0.356535 0 -0.115541 -0.386272 0 -0.138996 -0.386173 0 
-0.136558 -0.361336 0 -0.095918 -0.375153 0 -0.053815 -0.361286 0 
-0.074881 -0.385582 0 -0.0770666 -0.357038 0 -0.0515795 -0.386381 0 
-0.0291849 -0.360395 0 -0.00453168 -0.385563 0 -0.007375 -0.353034 0 
-0.0270679 -0.384645 0 0.0197639 -0.399045 0 0.0356158 -0.351449 0 
0.0327981 -0.377748 0 0.0107644 -0.3682 0 0.0884374 -0.361449 0 
0.077646 -0.383337 0 0.0574974 -0.364592 0 0.0536994 -0.390448 0 
0.140923 -0.362875 0 0.103564 -0.385011 0 0.12871 -0.386933 0 
0.115539 -0.362531 0 0.153239 -0.387826 0 0.171618 -0.373697 0 
0.197948 -0.366452 0 0.186528 -0.39103 0 0.161996 -0.351238 0 
0.224426 -0.374206 0 0.240645 -0.357615 0 0.241872 -0.39466 0 
0.211808 -0.392694 0 0.274623 -0.360891 0 0.272307 -0.398096 0 
0.257088 -0.377672 0 0.289217 -0.380058 0 0.345322 -0.369705 0 
0.306609 -0.394673 0 0.32957 -0.386889 0 0.312384 -0.36653 0 
0.328728 -0.350087 0 0.36487 -0.35759 0 0.380457 -0.378443 0 
0.359299 -0.390381 0 0.40528 -0.391975 0 0.434819 -0.394224 0 
0.42839 -0.372969 0 0.428995 -0.351114 0 0.403129 -0.367485 0 
0.462384 -0.350292 0 0.485226 -0.362181 0 0.488092 -0.384098 0 
0.454329 -0.3707 0 0.465715 -0.390441 0 0.5125 -0.3625 0 
0.5125 -0.3875 0 0.5375 -0.3875 0 0.5375 -0.3625 0 
-0.5375 -0.3375 0 -0.5375 -0.3125 0 -0.5125 -0.3125 0 
-0.5125 -0.3375 0 -0.488449 -0.33082 0 -0.468973 -0.343002 0 
-0.464815 -0.310828 0 -0.487338 -0.305729 0 -0.416758 -0.324771 0 
-0.433579 -0.308399 0 -0.430204 -0.346382 0 -0.448818 -0.328437 0 
-0.394996 -0.309601 0 -0.373487 -0.345594 0 -0.373597 -0.320301 0 
-0.397161 -0.337868 0 -0.350733 -0.313323 0 -0.34831 -0.338874 0 
-0.33301 -0.3004 0 -0.312048 -0.314565 0 -0.326069 -0.332388 0 
-0.263692 -0.334441 0 -0.26039 -0.309987 0 -0.29635 -0.340053 0 
-0.285774 -0.319594 0 -0.217571 -0.315793 0 -0.238907 -0.303492 0 
-0.216431 -0.344026 0 -0.238524 -0.332319 0 -0.167873 -0.317873 0 
-0.17675 -0.342469 0 -0.18511 -0.302274 0 -0.196099 -0.326533 0 
-0.148953 -0.336551 0 -0.126062 -0.332937 0 -0.10766 -0.318807 0 
-0.144262 -0.310037 0 -0.064382 -0.301195 0 -0.080845 -0.318908 0 
-0.0632863 -0.334214 0 -0.0949001 -0.34142 0 -0.0202012 -0.305055 0 
-0.0163485 -0.329973 0 -0.0438266 -0.310979 0 -0.0398972 -0.336062 0 
0.0487923 -0.330724 0 0.0316556 -0.315138 0 0.0156526 -0.33999 0 
0.00614852 -0.318597 0 0.0836553 -0.325554 0 0.0888575 -0.302183 0 
0.069956 -0.344832 0 0.0622832 -0.310717 0 0.130289 -0.339122 0 
0.112533 -0.317385 0 0.103551 -0.340395 0 0.1352 -0.310124 0 
0.184971 -0.345215 0 0.152305 -0.328592 0 0.173871 -0.320033 0 
0.185357 -0.300023 0 0.199855 -0.325867 0 0.230608 -0.331086 0 
0.249694 -0.317218 0 0.21443 -0.348018 0 0.215276 -0.309458 0 
0.269929 -0.303221 0 0.27719 -0.328786 0 0.257807 -0.34216 0 
0.294809 -0.348421 0 0.295472 -0.312514 0 0.347421 -0.336939 0 
0.310619 -0.331163 0 0.329984 -0.317584 0 0.389388 -0.317345 0 
0.368314 -0.326464 0 0.35209 -0.306653 0 0.384809 -0.347859 0 
0.420161 -0.322026 0 0.44466 -0.334324 0 0.434598 -0.304102 0 
0.405873 -0.339829 0 0.47343 -0.324754 0 0.49121 -0.306546 0 
0.456854 -0.310389 0 0.490433 -0.338659 0 0.5125 -0.3375 0 
0.5375 -0.3125 0 0.5375 -0.3375 0 0.5125 -0.3125 0 
-0.5125 -0.2625 0 -0.5375 -0.2625 0 -0.5125 -0.2875 0 
-0.5375 -0.2875 0 -0.489362 -0.251977 0 -0.466356 -0.255197 0 
-0.466749 -0.281668 0 -0.489275 -0.279582 0 -0.446358 -0.28882 0 
-0.444528 -0.257605 0 -0.406456 -0.257608 0 -0.412961 -0.292953 0 
-0.426283 -0.272703 0 -0.353339 -0.282203 0 -0.372223 -0.293214 0 
-0.354826 -0.256855 0 -0.378198 -0.261356 0 -0.392386 -0.27968 0 
-0.309804 -0.254247 0 -0.331027 -0.270523 0 -0.31249 -0.285232 0 
-0.291003 -0.29566 0 -0.268676 -0.287299 0 -0.271471 -0.255639 0 
-0.291061 -0.268205 0 -0.252234 -0.272024 0 -0.202522 -0.269433 0 
-0.230587 -0.281506 0 -0.207336 -0.293228 0 -0.224444 -0.256814 0 
-0.178476 -0.277103 0 -0.158566 -0.288995 0 -0.16716 -0.256448 0 
-0.111419 -0.277624 0 -0.138679 -0.277077 0 -0.117307 -0.255229 0 
-0.124047 -0.299833 0 -0.144374 -0.25472 0 -0.0947453 -0.296323 0 
-0.0519293 -0.279719 0 -0.0792021 -0.278342 0 -0.0605222 -0.257525 0 
-0.0903675 -0.25851 0 -0.029 -0.283322 0 -0.00507283 -0.273599 0 
-0.0314224 -0.258076 0 -0.00577171 -0.250571 0 0.021812 -0.269388 0 
0.0477535 -0.26603 0 0.0044546 -0.294696 0 0.030378 -0.292111 0 
0.0550661 -0.289424 0 0.0785476 -0.280576 0 0.0716752 -0.257139 0 
0.100527 -0.268495 0 0.148911 -0.265277 0 0.121942 -0.259301 0 
0.13334 -0.283549 0 0.110957 -0.291289 0 0.169683 -0.278104 0 
0.15647 -0.29803 0 0.188382 -0.264686 0 0.223502 -0.274681 0 
0.203106 -0.286318 0 0.243473 -0.261499 0 0.209646 -0.253535 0 
0.235302 -0.296864 0 0.297336 -0.256519 0 0.276802 -0.27082 0 
0.292367 -0.288041 0 0.255875 -0.28344 0 0.3147 -0.272277 0 
[...]
POINT_DATA 2798
SCALARS id float
LOOKUP_TABLE default
2601 2620 2621 2600 2640 2643 2641 2642 2644 
2645 2647 2646 2651 2650 2649 2648 2655 2652 
2654 2653 2658 2657 2659 2656 2663 2660 2662 
2661 2666 2664 2667 2665 2668 2671 2670 2669 
2673 2674 2672 2675 2676 2680 2678 2679 2681 
2677 2684 2683 2682 2685 2686 2687 2689 2688 
2691 2692 2690 2693 2697 2695 2694 2696 2699 
2700 2701 2698 2703 2704 2702 2705 2709 2708 
2706 2707 2710 2712 2711 2713 2717 2715 2716 
2714 2719 2718 2721 2720 2723 2743 2722 2742 
2623 2602 2622 2603 1678 1660 1696 1697 1768 
1750 1714 1732 1822 1840 1786 1804 1823 1858 
1913 1876 1949 1967 1894 1912 1985 1966 1948 
2093 1930 1984 2111 2129 2020 2074 2038 2056 
2147 2165 2110 2092 2184 2183 2128 2201 2146 
2219 2182 2164 2218 2237 2200 2310 2236 2291 
2290 2254 2328 2329 2272 2308 2309 2330 2331 
2350 2347 2327 2326 2349 2346 2365 2364 2348 
2368 2345 2383 2370 2363 2344 2362 2382 2380 
2386 2387 2385 2384 2381 2367 2724 2725 2744 
2745 2624 2625 2605 2604 1661 1679 1662 1715 
1733 1787 1805 1824 1895 1859 1842 1841 1932 
1877 1931 1914 1950 2004 2022 1986 2057 2021 
2003 2002 2075 2131 2112 2130 2185 2166 2148 
2167 2203 2239 2202 2221 2220 2257 2256 2276 
2238 2255 2293 2274 2275 2312 2311 2292 2273 
2300 2313 2332 2315 2316 2317 2336 2333 2283 
2335 2248 2352 2334 2318 2351 2353 2354 2337 
2366 2369 2284 1461 340 2267 2372 2371 2390 
2231 2213 2090 280 2355 2388 2391 2389 2727 
2726 2746 2747 2606 2607 2627 2626 1698 1716 
1734 1680 1825 1788 1806 1769 1862 1860 1861 
1843 1878 1896 1915 1968 1933 2040 2041 2005 
2023 2077 2059 2039 2058 2113 2094 2095 2076 
2149 2186 2204 2150 2224 2223 2240 2222 2242 
2259 2241 2258 2295 2278 2294 2277 2298 2281 
2296 2297 2282 2299 2314 2265 2230 2247 2125 
2018 21 2142 1362 2266 1441 1521 1481 1875 
2195 100 1620 60 20 1281 1122 1460 0 
1420 1341 1400 1101 2373 320 1221 2301 2728 
2749 2748 2729 2629 2609 2628 2608 1663 1735 
1752 1717 1751 1770 1881 1844 1807 1897 1879 
1953 1916 1880 1952 1934 1951 1987 2024 2042 
1969 2060 2097 2078 2096 2079 2114 2132 2115 
2205 2169 2187 2168 2133 2206 2208 2207 2191 
2190 2225 2243 2156 2174 2261 2262 2260 2279 
2280 2246 2263 2194 2072 2054 2229 2264 1929 
2212 1581 1838 1522 1946 1911 120 40 1361 
1561 140 1301 1541 1161 1928 1181 1261 1201 
1540 1141 1520 1241 1766 1321 1121 1440 1183 
2731 2750 2730 2751 2611 2610 2631 2630 1753 
1790 1771 1863 1899 1789 1826 1935 1898 1917 
1954 1970 1988 1989 1971 2044 2007 2043 2006 
2025 2061 2063 2062 2080 2099 2081 2064 2098 
2116 2134 2117 2151 2188 2170 2189 2172 2173 
2140 2155 2139 2209 2245 2244 2226 2193 2210 
2228 2211 2227 2036 2177 2124 2175 2176 2159 
1893 1821 1839 2035 1857 2107 180 1 1964 
1803 1982 1910 1998 1600 1731 1963 1580 1820 
160 1837 1729 1040 1802 1713 1784 1767 1001 
1081 2752 2732 2753 2733 2613 2633 2612 2632 
1808 1718 1772 1699 1681 1900 1864 1845 1882 
1918 1901 1919 1883 1990 1936 1955 1972 1973 
1991 2008 2026 2027 2010 2045 2046 2029 1905 
1993 2028 2030 2082 1959 2047 2135 2065 2100 
2152 2101 2171 2083 2136 2153 2154 2192 2120 
2123 2138 2158 2089 2157 2052 2071 2141 2053 
2070 2068 2087 2105 2000 2088 2106 1981 2051 
2017 2034 1693 1926 462 1980 2016 1892 1942 
1979 762 1120 900 1560 1853 1749 1300 1712 
1873 1818 2734 2754 2755 2735 2614 2615 2635 
2634 1700 1664 1736 1719 1827 1846 1865 1809 
1902 1920 1884 1937 1903 1956 1938 1957 1974 
1939 1924 1992 1940 1976 2009 1975 1977 1958 
1923 1870 1871 1835 2011 1817 1852 1816 1781 
1941 1994 2012 1711 1798 2048 1995 1689 1925 
2137 1960 2119 2122 2121 2066 2118 2103 2085 
2104 2015 2049 2050 2102 2033 2086 2032 2069 
1908 1785 1890 1856 1180 1874 820 1962 1909 
542 1783 1080 1675 1220 1891 1819 2756 2737 
2757 2736 2637 2616 2636 2617 1737 1701 1682 
1665 1791 1828 1810 1754 1738 1866 1847 1885 
1848 1792 1829 1867 1921 1849 1831 1868 1813 
1922 1904 1793 1739 1869 1758 1887 1722 1832 
1794 1886 1741 1776 1775 1834 1727 1777 1850 
1851 1705 1779 1780 1742 1723 1797 1906 1673 
2014 2013 1745 1944 1746 2357 2084 1814 1978 
1708 1799 1100 1726 1762 2031 1671 1888 2067 
1999 1996 1961 1140 80 1927 1709 1945 1997 
1889 1676 1695 2325 1728 1710 2288 2397 2145 
2306 2738 2758 2759 2739 2567 2564 2565 2566 
2570 2569 2571 2568 2572 2573 2575 2574 2579 
2578 2577 2576 2581 2582 2580 2583 2586 2587 
2584 2585 2591 2589 2590 2588 2595 2594 2593 
2592 2596 2599 2598 2597 2619 2618 2639 2638 
1683 1666 1668 1720 1773 1702 1755 1222 220 
1684 1601 1703 2160 1262 861 1685 1669 1811 
1830 2338 1774 1756 1812 1721 260 1757 1686 
1704 2143 2250 2356 1142 2374 2215 1282 1795 
2320 1670 1740 2232 1815 1760 2303 2234 2126 
2251 1543 1283 1523 1502 2361 1674 1691 1778 
1744 1833 1796 2376 2323 2375 2359 1759 2252 
2198 1943 1724 1707 1725 2377 2358 2179 2343 
800 2396 1743 601 1763 2271 2761 2740 2760 
2741 2762 2763 2765 2764 2768 2769 2766 2767 
2770 2773 2771 2772 2777 2775 2774 2776 2781 
2778 2780 2779 2784 2785 2783 2782 2788 2787 
2789 2786 2791 2792 2793 2790 2796 2795 2797 
2794 1836 2217 141 2342 1765 223 1380 460 
720 1800 1748 2091 2324 482 1200 1747 881 
1872 1041 1242 1907 862 802 1764 1260 263 
1320 822 1692 1854 921 941 1782 363 541 
1062 620 981 221 1102 1202 2285 1694 1401 
1340 1021 1677 362 422 701 381 1667 2178 
423 2181 2319 501 1240 402 721 124 682 
920 980 442 264 641 901 2249 401 2392 
240 783 1000 463 843 801 742 1061 403 
343 760 681 404 940 703 382 1182 962 
883 2214 1381 903 1322 782 1402 1947 723 
1421 1342 1184 961 804 1043 1023 1621 803 
1243 1687 1203 1003 1022 823 1582 201 1123 
2216 41 1223 1303 1382 181 1761 2394 640 
2235 461 1542 2019 1020 161 1688 2339 2270 
2287 2253 1672 2341 2304 2360 2199 761 2307 
163 2180 1480 2321 2108 2037 2378 2055 1060 
1855 1690 520 162 341 1801 680 1500 780 
2289 421 1730 1224 1482 1264 1363 1706 143 
360 1086 660 42 2268 81 1463 2162 1443 
480 61 1404 261 2340 83 1385 22 182 
561 420 860 2269 1364 1384 2127 1643 3 
281 1280 2286 2379 2322 1360 481 560 1160 
104 540 700 101 43 1605 122 1604 380 
4 84 302 241 123 600 521 321 1585 
1525 1565 62 740 1504 1505 361 262 105 
282 6 242 722 621 301 283 224 222 
85 24 27 184 323 304 383 880 661 
960 324 364 781 344 284 245 522 582 
922 841 741 305 2302 1082 602 583 923 
942 821 662 444 643 563 622 763 366 
1162 1044 744 1063 2305 1204 863 864 664 
983 1103 943 2161 902 1042 806 884 963 
2395 844 1185 2393 1144 2163 786 825 840 
2233 2196 300 1422 1105 1483 766 1004 1544 
1263 984 1302 1045 1145 2197 2109 200 1143 
1983 1641 1602 1564 1383 985 1501 1104 1065 
1084 1562 1025 1164 945 1344 1442 1244 1125 
965 1225 1087 1563 500 1066 1424 1503 1403 
1343 1366 1006 1462 1423 1186 1345 967 1323 
23 1365 1265 1304 2001 1227 121 1524 400 
1207 440 1644 63 441 82 1965 1642 1622 
1325 1346 103 1623 102 1603 1485 1286 1545 
1405 1584 142 2 1406 1465 1425 1466 44 
144 1426 1486 1624 5 25 580 1645 26 
45 64 1547 1586 244 203 183 1567 204 
443 66 165 342 46 166 243 86 225 
322 303 325 186 285 205 147 185 1002 
483 206 365 702 502 683 581 503 562 
424 405 345 543 385 642 326 1640 544 
287 386 623 1083 523 684 464 663 982 
603 743 625 1163 764 882 704 842 604 
665 566 546 605 724 904 506 526 626 
705 1124 1024 784 646 785 805 845 1064 
745 924 746 964 687 765 925 905 1106 
885 944 807 866 865 846 867 767 886 
887 788 848 827 906 728 868 907 847 
849 1085 966 986 748 1047 926 869 1046 
888 1205 1126 946 1165 1026 947 1005 948 
987 1067 1007 1088 1284 1206 1226 1027 1285 
2073 1245 1187 2144 1166 1128 1246 1324 1266 
1109 1127 1208 1305 1167 1464 1267 1583 1228 
1148 1247 1306 1444 1387 1347 1367 1307 1484 
1386 1446 1407 1368 1445 1546 1625 1428 1427 
1566 1447 1467 1487 1526 1506 1448 1527 1468 
65 1606 1646 1626 1607 1627 1587 1647 1588 
202 7 164 47 67 125 146 266 145 
87 126 286 88 226 167 187 148 265 
127 306 227 384 246 207 208 346 228 
189 229 247 307 209 484 624 327 267 
504 824 565 644 524 645 485 425 564 
584 446 585 347 465 525 545 426 505 
466 487 685 486 725 586 507 547 686 
666 606 607 826 706 787 726 608 747 
667 589 628 707 727 668 688 629 648 
708 689 669 649 670 709 768 729 749 
808 828 769 809 789 850 829 889 890 
870 830 908 928 910 909 927 1107 949 
988 968 929 1028 1008 1146 1068 1108 1069 
1048 1089 1029 1049 1090 1070 1050 1147 1129 
1110 1091 1130 1188 1111 1189 1229 1209 1168 
1149 1287 1210 1169 1326 1248 1327 1268 1288 
1348 1328 1309 1308 1329 1388 1349 1408 1370 
1369 1409 1488 1429 1469 1548 1507 1449 1568 
1528 1509 1508 1529 1608 1510 1549 1530 1569 
1589 1648 1628 1609 8 1629 28 9 48 
49 1649 106 29 107 68 30 89 108 
69 168 149 128 188 129 169 170 150 
248 190 249 268 406 289 269 288 329 
309 250 308 328 348 445 367 368 387 
407 408 427 447 388 467 468 527 449 
448 508 567 488 548 587 647 588 568 
627 549 511 550 569 530 529 571 570 
551 590 591 610 611 609 650 651 630 
631 690 691 671 710 711 730 731 750 
771 770 751 790 791 851 811 810 852 
831 871 891 892 872 912 911 931 969 
930 951 950 989 990 970 1009 991 1012 
1011 1030 1010 1052 1031 1032 1051 1071 1112 
1093 1072 1092 1132 1150 1131 1151 1170 1230 
1211 1190 1269 1250 1249 1231 1290 1291 1310 
1270 1289 1350 1331 1332 1311 1330 1352 1351 
1371 1389 1430 1390 1411 1410 1489 1450 1470 
1511 1471 1490 1491 1512 1550 1531 1551 1532 
1570 1590 1591 1571 1610 1611 1631 1630 1650 
11 10 1651 70 50 31 71 51 90 
91 110 109 133 151 131 111 130 132 
171 210 152 172 211 230 191 232 251 
270 231 271 310 291 290 349 330 350 
389 369 409 428 390 370 429 430 411 
410 469 470 450 489 528 490 509 510 
512 513 531 572 553 552 532 573 593 
592 613 612 633 652 653 632 673 692 
672 693 732 733 712 713 773 772 752 
753 792 793 812 813 833 832 853 854 
873 893 894 874 914 913 953 933 932 
972 952 971 973 993 1013 992 1034 1033 
1053 1073 1114 1113 1094 1115 1134 1152 1133 
1153 1191 1172 1171 1192 1213 1212 1232 1253 
1233 1251 1271 1272 1252 1292 1293 1312 1333 
1313 1353 1354 1372 1373 1412 1413 1392 1391 
1431 1451 1452 1453 1433 1432 1473 1492 1493 
1472 1513 1552 1533 1534 1553 1573 1572 1593 
1592 1613 1632 1612 1633 13 1653 12 1652 
52 53 32 33 73 93 92 72 113 
155 134 112 173 174 154 153 193 192 
213 212 253 234 233 252 272 273 293 
292 312 332 311 331 372 351 352 412 
392 391 371 431 451 452 432 492 491 
471 472 533 534 514 555 575 554 614 
615 595 635 574 594 675 654 655 634 
674 715 694 695 755 734 714 735 754 
775 795 774 835 794 814 815 834 916 
896 855 875 935 955 895 995 934 954 
975 915 1015 1035 994 974 1055 1014 1095 
1075 1136 1155 1074 1054 1175 1135 1154 1195 
1174 1194 1173 1214 1255 1193 1234 1235 1275 
1254 1295 1274 1273 1315 1335 1294 1314 1375 
1355 1334 1394 1374 1393 1415 1395 1435 1414 
1455 1434 1475 1454 1495 1494 1515 1474 1575 
1554 1555 1535 1514 1595 1574 1594 1615 1634 
1635 1655 1614 15 14 35 1654 55 34 
54 75 94 95 115 74 156 176 135 
114 276 175 196 195 215 194 296 275 
214 235 255 315 254 295 274 294 314 
354 353 395 374 313 333 394 373 415 
414 413 393 455 434 435 453 454 433 
475 474 493 494 473 495 515 857 837 
616 596 636 656 897 877 716 676 917 
696 937 957 756 997 736 977 1017 776 
796 1037 816 1057 1077 836 856 1097 1117 
876 1177 1137 936 956 976 1217 996 1197 
1237 1036 1056 1016 1257 1076 1297 1096 1277 
1317 1337 1157 1116 1176 1357 1377 1156 1417 
1216 1196 1397 1215 1457 1236 1437 1256 1477 
1276 1497 1517 1316 1537 1296 1336 1356 1557 
1577 1376 1597 1396 1617 1657 1436 1416 1637 
1456 17 37 1476 1496 1516 77 57 117 
1536 97 1556 1596 157 137 1576 197 1636 
1616 177 16 217 237 1656 56 297 36 
277 76 317 96 116 337 136 257 397 
357 236 216 417 437 377 256 376 457 
497 316 477 336 335 517 356 537 557 
355 334 577 597 396 617 416 375 436 
456 637 657 697 677 476 496 737 717 
516 757 536 535 777 556 576 817 797 
1438 1458 1059 1039 1099 1478 1498 1079 1119 
1558 1538 1518 1139 1159 1578 1598 1179 1199 
1618 1638 1219 1658 1239 1259 18 38 1279 
1299 58 1339 1319 78 98 1399 1359 1379 
118 138 158 1419 1439 178 1459 1479 198 
1499 218 1519 238 278 1559 1539 298 258 
1579 318 1599 338 1619 378 1659 358 1639 
398 418 39 19 59 79 458 438 119 
478 498 99 159 518 139 538 179 558 
578 199 618 219 239 598 259 279 658 
638 678 319 718 698 299 359 758 379 
738 339 419 798 778 399 818 459 439 
838 878 858 479 499 539 918 519 898 
938 579 559 958 978 599 998 619 1018 
639 1038 659 1058 1078 679 699 739 1138 
1118 719 1098 779 1178 1158 759 819 799 
1218 1198 839 859 1258 1238 879 899 1298 
1278 1318 919 1338 939 979 959 1358 1378 
1418 999 1398 1019 2401 2399 2398 2400 2405 
2404 2402 2403 2409 2408 2406 2407 2411 2410 
2413 2412 2416 2415 2414 2417 2421 2419 2420 
2418 2423 2424 2425 2427 2422 2426 2428 2431 
2430 2429 2433 2435 2432 2434 2439 2436 2437 
2438 2442 2440 2441 2443 2444 2445 2446 2447 
2449 2448 2450 2451 2453 2454 2455 2452 2456 
2457 2459 2458 2463 2461 2460 2462 2465 2464 
2466 2467 2469 2470 2468 2471 2475 2474 2473 
2472 2479 2481 2480 2476 2477 2478 2482 2483 
2484 2485 2489 2486 2487 2488 2493 2492 2490 
2491 2497 2496 2495 2494 2498 2501 2499 2500 
2505 2503 2504 2502 2509 2508 2507 2506 2511 
2512 2513 2510 2517 2515 2514 2516 2520 2519 
2518 2521 2522 2523 2524 2525 2527 2528 2529 
2526 2532 2533 2531 2530 2534 2535 2536 2537 
2538 2539 2542 2540 2543 2541 2544 2545 2546 
2547 2548 2549 2550 2551 2552 2554 2553 2555 
2558 2556 2557 2559 2560 2561 2562 2563 
FIELD FieldData 7
r 3 2798 float
-0.5375 -0.4625 0 -0.5125 -0.4875 0 -0.5125 -0.4625 0 
-0.5375 -0.4875 0 -0.487805 -0.4875 0 -0.463415 -0.4625 0 
-0.487805 -0.4625 0 -0.463415 -0.4875 0 -0.439024 -0.4875 0 
-0.439024 -0.4625 0 -0.414634 -0.4625 0 -0.414634 -0.4875 0 
-0.365854 -0.4625 0 -0.365854 -0.4875 0 -0.390244 -0.4625 0 
-0.390244 -0.4875 0 -0.317073 -0.4625 0 -0.341463 -0.4875 0 
-0.317073 -0.4875 0 -0.341463 -0.4625 0 -0.268293 -0.4875 0 
-0.292683 -0.4625 0 -0.268293 -0.4625 0 -0.292683 -0.4875 0 
-0.219512 -0.4625 0 -0.243902 -0.4875 0 -0.219512 -0.4875 0 
-0.243902 -0.4625 0 -0.170732 -0.4875 0 -0.195122 -0.4875 0 
-0.170732 -0.4625 0 -0.195122 -0.4625 0 -0.146341 -0.4875 0 
-0.121951 -0.4625 0 -0.121951 -0.4875 0 -0.146341 -0.4625 0 
-0.097561 -0.4625 0 -0.0731707 -0.4875 0 -0.097561 -0.4875 0 
-0.0731707 -0.4625 0 -0.0487805 -0.4875 0 -1.86265e-08 -0.4875 0 
-0.0243903 -0.4875 0 -0.0243903 -0.4625 0 -1.86265e-08 -0.4625 0 
-0.0487805 -0.4625 0 0.0487805 -0.4875 0 0.0243902 -0.4625 0 
0.0243902 -0.4875 0 0.0487805 -0.4625 0 0.0731707 -0.4875 0 
0.0731707 -0.4625 0 0.097561 -0.4625 0 0.097561 -0.4875 0 
0.121951 -0.4625 0 0.146341 -0.4875 0 0.121951 -0.4875 0 
0.146341 -0.4625 0 0.195122 -0.4625 0 0.170732 -0.4625 0 
0.170732 -0.4875 0 0.195122 -0.4875 0 0.219512 -0.4625 0 
0.243902 -0.4875 0 0.243902 -0.4625 0 0.219512 -0.4875 0 
0.268293 -0.4625 0 0.292683 -0.4875 0 0.268293 -0.4875 0 
0.292683 -0.4625 0 0.341463 -0.4625 0 0.341463 -0.4875 0 
0.317073 -0.4875 0 0.317073 -0.4625 0 0.365854 -0.4875 0 
0.390244 -0.4875 0 0.365854 -0.4625 0 0.390244 -0.4625 0 
0.439024 -0.4625 0 0.414634 -0.4625 0 0.439024 -0.4875 0 
0.414634 -0.4875 0 0.463415 -0.4625 0 0.463415 -0.4875 0 
0.487805 -0.4625 0 0.487805 -0.4875 0 0.5125 -0.4625 0 
0.5375 -0.4625 0 0.5125 -0.4875 0 0.5375 -0.4875 0 
-0.5125 -0.4125 0 -0.5375 -0.4375 0 -0.5125 -0.4375 0 
-0.5375 -0.4125 0 -0.468541 -0.439242 0 -0.490846 -0.432381 0 
-0.454328 -0.413797 0 -0.478386 -0.410879 0 -0.410388 -0.413632 0 
-0.431363 -0.405574 0 -0.443956 -0.435952 0 -0.422025 -0.436575 0 
-0.36195 -0.405072 0 -0.351481 -0.427276 0 -0.396823 -0.438258 0 
-0.370206 -0.439341 0 -0.384291 -0.416203 0 -0.333094 -0.439431 0 
-0.325009 -0.413906 0 -0.308293 -0.436303 0 -0.300847 -0.409754 0 
-0.276472 -0.412655 0 -0.285364 -0.436981 0 -0.261247 -0.437873 0 
-0.254672 -0.408577 0 -0.228312 -0.409446 0 -0.218277 -0.437946 0 
-0.205037 -0.411852 0 -0.240056 -0.433396 0 -0.194829 -0.436091 0 
-0.182966 -0.406617 0 -0.160539 -0.411728 0 -0.173117 -0.435847 0 
-0.102675 -0.436641 0 -0.149734 -0.437534 0 -0.126243 -0.437128 0 
-0.136931 -0.411672 0 -0.112616 -0.4119 0 -0.0571039 -0.438261 0 
-0.0810487 -0.435713 0 -0.0911929 -0.406167 0 -0.0684913 -0.412864 0 
-0.0339911 -0.435969 0 -0.0449349 -0.410914 0 -0.0110038 -0.438251 0 
-0.0212694 -0.410601 0 0.0345946 -0.436449 0 0.0128492 -0.435808 0 
0.0376337 -0.412587 0 0.002182 -0.413246 0 0.0586196 -0.438236 0 
0.0856809 -0.408127 0 0.0821493 -0.436472 0 0.0632883 -0.413424 0 
0.149498 -0.435847 0 0.103635 -0.435564 0 0.132919 -0.41222 0 
0.109166 -0.410209 0 0.126488 -0.437912 0 0.196706 -0.437771 0 
0.172298 -0.437734 0 0.158364 -0.410461 0 0.181985 -0.413367 0 
0.234563 -0.415235 0 0.208695 -0.415618 0 0.22263 -0.438584 0 
0.248725 -0.439115 0 0.261326 -0.418324 0 0.27668 -0.438686 0 
0.290273 -0.415672 0 0.316994 -0.416989 0 0.302654 -0.439067 0 
0.339905 -0.409714 0 0.329497 -0.438138 0 0.396114 -0.425975 0 
0.384509 -0.404734 0 0.363549 -0.416149 0 0.353102 -0.437532 0 
0.379422 -0.44028 0 0.435912 -0.431395 0 0.414561 -0.440934 0 
0.418454 -0.412388 0 0.490073 -0.409159 0 0.471922 -0.422141 0 
0.488517 -0.439175 0 0.456758 -0.441187 0 0.45132 -0.410068 0 
0.5125 -0.4375 0 0.5125 -0.4125 0 0.5375 -0.4375 0 
0.5375 -0.4125 0 -0.5125 -0.3875 0 -0.5125 -0.3625 0 
-0.5375 -0.3625 0 -0.5375 -0.3875 0 -0.49069 -0.392933 0 
-0.47338 -0.37559 0 -0.489892 -0.359572 0 -0.454853 -0.389605 0 
-0.451601 -0.359538 0 -0.433588 -0.376325 0 -0.411853 -0.385312 0 
-0.409747 -0.359786 0 -0.351056 -0.362132 0 -0.364602 -0.380958 0 
-0.385328 -0.366633 0 -0.389647 -0.392232 0 -0.318345 -0.354476 0 
-0.338987 -0.396365 0 -0.309096 -0.387184 0 -0.330534 -0.374249 0 
-0.29525 -0.36667 0 -0.260312 -0.378281 0 -0.273281 -0.355436 0 
-0.280889 -0.387779 0 -0.208578 -0.386583 0 -0.245289 -0.356902 0 
-0.238628 -0.387609 0 -0.223008 -0.367994 0 -0.195819 -0.357516 0 
-0.161737 -0.360348 0 -0.18559 -0.378769 0 -0.162822 -0.385165 0 
-0.113815 -0.356535 0 -0.115541 -0.386272 0 -0.138996 -0.386173 0 
-0.136558 -0.361336 0 -0.095918 -0.375153 0 -0.053815 -0.361286 0 
-0.074881 -0.385582 0 -0.0770666 -0.357038 0 -0.0515795 -0.386381 0 
-0.0291849 -0.360395 0 -0.00453168 -0.385563 0 -0.007375 -0.353034 0 
-0.0270679 -0.384645 0 0.0197639 -0.399045 0 0.0356158 -0.351449 0 
0.0327981 -0.377748 0 0.0107644 -0.3682 0 0.0884374 -0.361449 0 
0.077646 -0.383337 0 0.0574974 -0.364592 0 0.0536994 -0.390448 0 
0.140923 -0.362875 0 0.103564 -0.385011 0 0.12871 -0.386933 0 
0.115539 -0.362531 0 0.153239 -0.387826 0 0.171618 -0.373697 0 
0.197948 -0.366452 0 0.186528 -0.39103 0 0.161996 -0.351238 0 
0.224426 -0.374206 0 0.240645 -0.357615 0 0.241872 -0.39466 0 
0.211808 -0.392694 0 0.274623 -0.360891 0 0.272307 -0.398096 0 
0.257088 -0.377672 0 0.289217 -0.380058 0 0.345322 -0.369705 0 
0.306609 -0.394673 0 0.32957 -0.386889 0 0.312384 -0.36653 0 
0.328728 -0.350087 0 0.36487 -0.35759 0 0.380457 -0.378443 0 
0.359299 -0.390381 0 0.40528 -0.391975 0 0.434819 -0.394224 0 
0.42839 -0.372969 0 0.428995 -0.351114 0 0.403129 -0.367485 0 
0.462384 -0.350292 0 0.485226 -0.362181 0 0.488092 -0.384098 0 
0.454329 -0.3707 0 0.465715 -0.390441 0 0.5125 -0.3625 0 
0.5125 -0.3875 0 0.5375 -0.3875 0 0.5375 -0.3625 0 
-0.5375 -0.3375 0 -0.5375 -0.3125 0 -0.5125 -0.3125 0 
-0.5125 -0.3375 0 -0.488449 -0.33082 0 -0.468973 -0.343002 0 
-0.464815 -0.310828 0 -0.487338 -0.305729 0 -0.416758 -0.324771 0 
-0.433579 -0.308399 0 -0.430204 -0.346382 0 -0.448818 -0.328437 0 
-0.394996 -0.309601 0 -0.373487 -0.345594 0 -0.373597 -0.320301 0 
-0.397161 -0.337868 0 -0.350733 -0.313323 0 -0.34831 -0.338874 0 
-0.33301 -0.3004 0 -0.312048 -0.314565 0 -0.326069 -0.332388 0 
-0.263692 -0.334441 0 -0.26039 -0.309987 0 -0.29635 -0.340053 0 
-0.285774 -0.319594 0 -0.217571 -0.315793 0 -0.238907 -0.303492 0 
-0.216431 -0.344026 0 -0.238524 -0.332319 0 -0.167873 -0.317873 0 
-0.17675 -0.342469 0 -0.18511 -0.302274 0 -0.196099 -0.326533 0 
-0.148953 -0.336551 0 -0.126062 -0.332937 0 -0.10766 -0.318807 0 
-0.144262 -0.310037 0 -0.064382 -0.301195 0 -0.080845 -0.318908 0 
-0.0632863 -0.334214 0 -0.0949001 -0.34142 0 -0.0202012 -0.305055 0 
-0.0163485 -0.329973 0 -0.0438266 -0.310979 0 -0.0398972 -0.336062 0 