# vtk DataFile Version 4.0
vtk output
ASCII
DATASET POLYDATA
FIELD FieldData 4
domain 1 3 string
domain_min:-20|-15
domain_max:20|15
cell_size:0.05

variables 1 2 string
dt:0.000372678
T:1.67026

constants 1 10 string
xsize:2
ysize:1
csize:0.05
dx:0.0238095
h:0.025
rho0:1000
mass:0.566894
g:1|0
c:13.4164
CFL:0.2

functions 1 8 string
time:T=(T+dt)
continuity:rho_dot=((-(rho*sph_D00(v,mass,rho,Wp52220)))+(((0.1*c)*h)*sph_L00(rho,mass,rho,Wp52220)))
irho:rho=(rho+int1((rho_dot,dt))
EOS:p=(((c^2)*(rho-rho0))+10000)
euler:a=if((gid,(0*v),(((-((1/rho)*sph_G11(p,mass,rho,Wp52220)))+(0.01*sph_L00(v,mass,rho,Wp52220)))+g))
vel:v=(v+int1((a,dt))
pos:r=(r+int1((v,dt))
new_dt:dt=(CFL*min((sqrt(((h/fmax(magnitude((a)))),(h/c)))

POINTS 2798 float
-0.5125 -0.4875 0 -0.5125 -0.4625 0 -0.5375 -0.4875 0 
-0.5375 -0.4625 0 -0.487805 -0.4875 0 -0.463415 -0.4875 0 
-0.463415 -0.4625 0 -0.487805 -0.4625 0 -0.439024 -0.4625 0 
-0.414634 -0.4625 0 -0.414634 -0.4875 0 -0.439024 -0.4875 0 
-0.390244 -0.4625 0 -0.390244 -0.4875 0 -0.365854 -0.4625 0 
-0.365854 -0.4875 0 -0.341463 -0.4625 0 -0.317073 -0.4625 0 
-0.341463 -0.4875 0 -0.317073 -0.4875 0 -0.268293 -0.4875 0 
-0.268293 -0.4625 0 -0.292683 -0.4875 0 -0.292683 -0.4625 0 
-0.219512 -0.4875 0 -0.243902 -0.4875 0 -0.243902 -0.4625 0 
-0.219512 -0.4625 0 -0.195122 -0.4875 0 -0.170732 -0.4625 0 
-0.195122 -0.4625 0 -0.170732 -0.4875 0 -0.121951 -0.4875 0 
-0.121951 -0.4625 0 -0.146341 -0.4875 0 -0.146341 -0.4625 0 
-0.0731707 -0.4625 0 -0.097561 -0.4875 0 -0.0731707 -0.4875 0 
-0.097561 -0.4625 0 -0.0487805 -0.4875 0 -0.0487805 -0.4625 0 
-0.0243903 -0.4625 0 -1.86265e-08 -0.4625 0 -0.0243903 -0.4875 0 
-1.86265e-08 -0.4875 0 0.0243902 -0.4625 0 0.0243902 -0.4875 0 
0.0487805 -0.4875 0 0.0487805 -0.4625 0 0.097561 -0.4625 0 
0.0731707 -0.4625 0 0.097561 -0.4875 0 0.0731707 -0.4875 0 
0.146341 -0.4875 0 0.121951 -0.4875 0 0.121951 -0.4625 0 
0.146341 -0.4625 0 0.170732 -0.4875 0 0.195122 -0.4875 0 
0.195122 -0.4625 0 0.170732 -0.4625 0 0.219512 -0.4875 0 
0.219512 -0.4625 0 0.243902 -0.4875 0 0.243902 -0.4625 0 
0.292683 -0.4625 0 0.268293 -0.4625 0 0.268293 -0.4875 0 
0.292683 -0.4875 0 0.317073 -0.4875 0 0.317073 -0.4625 0 
0.341463 -0.4875 0 0.341463 -0.4625 0 0.365854 -0.4625 0 
0.390244 -0.4875 0 0.390244 -0.4625 0 0.365854 -0.4875 0 
0.439024 -0.4625 0 0.414634 -0.4625 0 0.439024 -0.4875 0 
0.414634 -0.4875 0 0.463415 -0.4625 0 0.487805 -0.4875 0 
0.487805 -0.4625 0 0.463415 -0.4875 0 0.5375 -0.4625 0 
0.5375 -0.4875 0 0.5125 -0.4625 0 0.5125 -0.4875 0 
-0.5125 -0.4125 0 -0.5375 -0.4125 0 -0.5375 -0.4375 0 
-0.5125 -0.4375 0 -0.488649 -0.436247 0 -0.489152 -0.409087 0 
-0.465582 -0.436655 0 -0.466455 -0.410317 0 -0.419011 -0.437316 0 
-0.442531 -0.43638 0 -0.443101 -0.409912 0 -0.419586 -0.411807 0 
-0.395592 -0.412186 0 -0.372218 -0.409155 0 -0.394796 -0.437508 0 
-0.371502 -0.435991 0 -0.305514 -0.41079 0 -0.349708 -0.410347 0 
-0.305809 -0.438495 0 -0.348699 -0.437627 0 -0.32755 -0.404886 0 
-0.327463 -0.433147 0 -0.26328 -0.437553 0 -0.283903 -0.404093 0 
-0.261572 -0.410799 0 -0.284409 -0.432846 0 -0.218067 -0.435748 0 
-0.21445 -0.410514 0 -0.238761 -0.409336 0 -0.240322 -0.436246 0 
-0.195385 -0.438524 0 -0.16479 -0.405401 0 -0.193152 -0.406776 0 
-0.176776 -0.428196 0 -0.157976 -0.438758 0 -0.13509 -0.435664 0 
-0.120038 -0.410011 0 -0.143511 -0.41086 0 -0.112378 -0.437445 0 
-0.075343 -0.409421 0 -0.0916568 -0.433099 0 -0.0985187 -0.405549 0 
-0.0702879 -0.437585 0 -0.0522594 -0.412338 0 -0.0251395 -0.434366 0 
-0.00333908 -0.43716 0 -0.0466317 -0.43722 0 -0.00735548 -0.410136 0 
-0.0298181 -0.405947 0 0.038755 -0.410827 0 0.0155769 -0.409997 0 
0.042154 -0.437222 0 0.0193146 -0.436369 0 0.0645848 -0.435232 0 
0.0850956 -0.407837 0 0.0870045 -0.439289 0 0.0631604 -0.410048 0 
0.136564 -0.412363 0 0.145521 -0.436101 0 0.11561 -0.404032 0 
0.121832 -0.438983 0 0.104104 -0.425797 0 0.167554 -0.436202 0 
0.189814 -0.436016 0 0.159345 -0.407617 0 0.180905 -0.409531 0 
0.213035 -0.438077 0 0.205292 -0.411958 0 0.229533 -0.414944 0 
0.238322 -0.437926 0 0.256755 -0.41274 0 0.262231 -0.436476 0 
0.283899 -0.412316 0 0.285483 -0.437563 0 0.333808 -0.436852 0 
0.307665 -0.413947 0 0.310084 -0.438057 0 0.334797 -0.412816 0 
0.361954 -0.415954 0 0.393741 -0.415821 0 0.38319 -0.437223 0 
0.358235 -0.438675 0 0.434426 -0.404587 0 0.440445 -0.440421 0 
0.409628 -0.439888 0 0.422484 -0.421728 0 0.475572 -0.441475 0 
0.490881 -0.426948 0 0.484415 -0.404498 0 0.45668 -0.426216 0 
0.46129 -0.404109 0 0.5125 -0.4375 0 0.5375 -0.4375 0 
0.5125 -0.4125 0 0.5375 -0.4125 0 -0.5375 -0.3625 0 
-0.5125 -0.3625 0 -0.5125 -0.3875 0 -0.5375 -0.3875 0 
-0.467367 -0.384078 0 -0.466649 -0.35763 0 -0.48962 -0.352836 0 
-0.489494 -0.38101 0 -0.444065 -0.38405 0 -0.420384 -0.385872 0 
-0.444071 -0.357587 0 -0.420163 -0.36146 0 -0.392348 -0.36295 0 
-0.39702 -0.386718 0 -0.372919 -0.38324 0 -0.360946 -0.360534 0 
-0.306657 -0.383775 0 -0.328188 -0.375268 0 -0.31946 -0.353157 0 
-0.348482 -0.383591 0 -0.265419 -0.383417 0 -0.296319 -0.352011 0 
-0.258942 -0.358507 0 -0.286298 -0.373727 0 -0.232626 -0.359509 0 
-0.241892 -0.383315 0 -0.218015 -0.385047 0 -0.200427 -0.373021 0 
-0.180086 -0.385906 0 -0.186031 -0.353148 0 -0.164586 -0.365802 0 
-0.109314 -0.356572 0 -0.14867 -0.383053 0 -0.124949 -0.384596 0 
-0.133775 -0.359378 0 -0.100912 -0.378644 0 -0.053161 -0.386563 0 
-0.0776885 -0.3833 0 -0.0513044 -0.360498 0 -0.0747797 -0.359382 0 
-0.0256889 -0.350871 0 -0.0303462 -0.377846 0 -0.00828001 -0.383352 0 
-0.00408448 -0.356617 0 0.0366967 -0.384142 0 0.0404169 -0.358825 0 
0.014279 -0.382895 0 0.0179892 -0.354924 0 0.0775566 -0.373186 0 
0.0964737 -0.38689 0 0.0595677 -0.385261 0 0.0612663 -0.352688 0 
0.130351 -0.355329 0 0.147739 -0.384398 0 0.12512 -0.381164 0 
0.105919 -0.363021 0 0.170382 -0.379044 0 0.181411 -0.355788 0 
0.152755 -0.357094 0 0.192801 -0.386818 0 0.218282 -0.388384 0 
0.242485 -0.392217 0 0.227649 -0.364278 0 0.20345 -0.363489 0 
0.254467 -0.372545 0 0.272963 -0.391644 0 0.292252 -0.380117 0 
0.273456 -0.359809 0 0.334888 -0.353506 0 0.345917 -0.392538 0 
0.327305 -0.3745 0 0.303997 -0.360143 0 0.313361 -0.392832 0 
0.374911 -0.397931 0 0.363897 -0.351258 0 0.357584 -0.372513 0 
0.382897 -0.377057 0 0.433154 -0.358558 0 0.401264 -0.364902 0 
0.405552 -0.396399 0 0.421631 -0.380173 0 0.447903 -0.382974 0 
0.488343 -0.382143 0 0.467923 -0.372114 0 0.490073 -0.355238 0 
0.453521 -0.351113 0 0.5375 -0.3625 0 0.5375 -0.3875 0 
0.5125 -0.3875 0 0.5125 -0.3625 0 -0.5125 -0.3125 0 
-0.5125 -0.3375 0 -0.5375 -0.3375 0 -0.5375 -0.3125 0 
-0.465748 -0.303862 0 -0.469036 -0.33134 0 -0.489718 -0.323256 0 
-0.423156 -0.306866 0 -0.403188 -0.340845 0 -0.401419 -0.316454 0 
-0.447137 -0.327938 0 -0.426876 -0.334284 0 -0.376685 -0.319443 0 
-0.352512 -0.324227 0 -0.376116 -0.342947 0 -0.326985 -0.324699 0 
-0.304532 -0.327236 0 -0.342668 -0.347242 0 -0.274347 -0.342525 0 
-0.283137 -0.317481 0 -0.260802 -0.317149 0 -0.213916 -0.300516 0 
-0.22456 -0.323644 0 -0.21315 -0.348893 0 -0.244568 -0.336404 0 
-0.24208 -0.303699 0 -0.16558 -0.310032 0 -0.151786 -0.343603 0 
-0.173308 -0.332435 0 -0.199207 -0.328113 0 -0.190273 -0.305009 0 
-0.123913 -0.333805 0 -0.116271 -0.302666 0 -0.142033 -0.318928 0 
-0.103181 -0.321257 0 -0.090432 -0.342805 0 -0.0679705 -0.330243 0 
-0.0816799 -0.31 0 -0.0553431 -0.305144 0 -0.0337375 -0.313245 0 
-0.0460838 -0.336126 0 -0.0151443 -0.326506 0 0.0241273 -0.303676 0 
0.00703252 -0.328672 0 0.04702 -0.302849 0 0.0305311 -0.330432 0 
0.0013203 -0.301766 0 0.077604 -0.324677 0 0.0705713 -0.300802 0 
0.053159 -0.328412 0 0.08602 -0.347581 0 0.109025 -0.336005 0 
0.10078 -0.313938 0 0.124764 -0.306597 0 0.133545 -0.33107 0 
0.17439 -0.305876 0 0.152667 -0.317879 0 0.18894 -0.32639 0 
0.166211 -0.337233 0 0.244459 -0.348327 0 0.24289 -0.309225 0 
0.228178 -0.328962 0 0.208627 -0.310247 0 0.208688 -0.340234 0 
0.287833 -0.31689 0 0.282403 -0.339779 0 0.268026 -0.304676 0 
0.258952 -0.330298 0 0.337551 -0.309121 0 0.341154 -0.332756 0 
0.31048 -0.339179 0 0.314678 -0.317355 0 0.397727 -0.303539 0 
0.386161 -0.345057 0 0.394634 -0.323409 0 0.36545 -0.325143 0 
0.366935 -0.304138 0 0.414856 -0.343125 0 0.426345 -0.324489 0 
0.426026 -0.303177 0 0.449456 -0.326638 0 0.489715 -0.322287 0 
0.474543 -0.33905 0 0.465459 -0.30942 0 0.5375 -0.3375 0 
0.5375 -0.3125 0 0.5125 -0.3375 0 0.5125 -0.3125 0 
-0.5375 -0.2875 0 -0.5125 -0.2875 0 -0.5125 -0.2625 0 
-0.5375 -0.2625 0 -0.454609 -0.268286 0 -0.490937 -0.261374 0 
-0.473891 -0.27793 0 -0.490102 -0.295479 0 -0.407544 -0.253588 0 
-0.444569 -0.298566 0 -0.412443 -0.28105 0 -0.433452 -0.274946 0 
-0.364339 -0.268504 0 -0.387282 -0.265006 0 -0.393194 -0.292196 0 
-0.370433 -0.293764 0 -0.348379 -0.298935 0 -0.341394 -0.272598 0 
-0.317872 -0.27339 0 -0.302992 -0.298411 0 -0.32546 -0.299257 0 
-0.295216 -0.26792 0 -0.253428 -0.261355 0 -0.280985 -0.29018 0 
-0.260451 -0.285364 0 -0.276404 -0.257116 0 -0.208176 -0.274004 0 
-0.232572 -0.281215 0 -0.229181 -0.256049 0 -0.185707 -0.280408 0 
-0.179632 -0.255039 0 -0.162313 -0.285234 0 -0.156871 -0.259943 0 
-0.139026 -0.294054 0 -0.1347 -0.269456 0 -0.114471 -0.254285 0 
-0.110208 -0.279369 0 -0.0879935 -0.287929 0 -0.0608763 -0.258658 0 
-0.0638402 -0.282086 0 -0.087645 -0.261899 0 -0.0125135 -0.263553 0 
-0.0185093 -0.292095 0 -0.0349533 -0.256901 0 -0.0384535 -0.281806 0 
0.0358875 -0.253865 0 0.0293632 -0.277753 0 0.00670998 -0.274786 0 
0.0996172 -0.262288 0 0.0762734 -0.270377 0 0.0919176 -0.290648 0 
0.0541641 -0.277537 0 0.120283 -0.250745 0 0.114942 -0.283882 0 
0.146709 -0.293322 0 0.134683 -0.27114 0 0.192466 -0.291066 0 
0.167056 -0.279827 0 0.185352 -0.262983 0 0.154797 -0.257964 0 
0.208662 -0.273627 0 0.223642 -0.250115 0 0.225514 -0.293301 0 
0.236557 -0.270224 0 0.269573 -0.263247 0 0.28452 -0.285634 0 
0.255303 -0.283445 0 0.297083 -0.26409 0 0.320023 -0.277828 0 
0.332114 -0.257429 0 0.306651 -0.295802 0 0.342954 -0.288553 0 
[...]
POINT_DATA 2798
SCALARS id float
LOOKUP_TABLE default
2620 2621 2600 2601 2640 2642 2643 2641 2645 
2647 2646 2644 2649 2648 2651 2650 2653 2655 
2652 2654 2658 2659 2656 2657 2662 2660 2661 
2663 2664 2667 2665 2666 2670 2671 2668 2669 
2675 2672 2674 2673 2676 2677 2679 2681 2678 
2680 2683 2682 2684 2685 2689 2687 2688 2686 
2692 2690 2691 2693 2694 2696 2697 2695 2698 
2699 2700 2701 2705 2703 2702 2704 2706 2707 
2708 2709 2711 2712 2713 2710 2717 2715 2716 
2714 2719 2720 2721 2718 2743 2742 2723 2722 
2623 2603 2602 2622 1660 1661 1678 1697 1714 
1696 1715 1750 1768 1823 1732 1786 1913 1822 
1858 1804 1877 1840 1894 1931 1949 1876 1930 
1985 1967 1912 1948 2057 2003 1966 1984 2020 
2111 2093 2038 2147 2056 2129 2074 2165 2110 
2128 2092 2183 2184 2219 2201 2164 2146 2182 
2255 2200 2237 2291 2254 2273 2236 2218 2272 
2290 2310 2329 2309 2328 2330 2308 2331 2327 
2347 2326 2348 2350 2346 2349 2365 2364 2344 
2345 2383 2380 2362 2363 2381 2384 2385 2382 
2367 2724 2744 2725 2745 2605 2625 2624 2604 
1679 1716 1698 1662 1733 1787 1769 1806 1824 
1805 1841 1842 1914 1895 1896 1859 1950 1933 
2005 1932 2022 1986 2004 2021 2002 2058 2039 
2131 2075 2112 2094 2130 2166 2148 2185 2167 
2222 2203 2202 2221 2238 2257 2220 2239 2275 
2274 2256 2276 2295 2311 2292 2293 2312 2314 
2296 2313 2332 2316 2300 2315 2317 2333 2334 
2336 2318 2351 2353 2335 2352 2366 2284 2354 
2369 2371 2372 2368 2370 2386 2387 2389 2388 
2390 2747 2746 2726 2727 2627 2626 2606 2607 
1752 1734 1680 1807 1825 1844 1751 1788 1862 
1861 1843 1878 1915 1860 1968 1951 1987 2060 
2041 2040 2023 2024 2096 2076 2077 2059 2078 
2113 2132 2095 2150 2149 2186 2168 2205 2206 
2204 2223 2241 2240 2242 2258 2224 2277 2260 
2259 2294 2278 2279 2280 2297 2264 2281 2299 
2298 2283 2125 2247 2265 2282 2142 2266 21 
2230 1481 2195 2248 1875 1620 2337 340 1461 
60 2267 2090 0 2231 2355 2391 280 2748 
2749 2728 2729 2608 2628 2629 2609 1771 1663 
1735 1717 1863 1770 1826 1789 1898 1899 1881 
1880 1879 1916 1953 1934 1897 1970 2006 1952 
1969 1988 2061 2042 2043 2079 2080 2097 2098 
2114 2115 2116 2133 2169 2188 2187 2151 2191 
2207 2189 2190 2174 2225 2208 2245 2244 2261 
2243 2228 2262 2246 2263 2229 2194 2054 2211 
2072 1893 2212 1929 1522 1441 2018 120 1521 
1561 1362 100 1161 20 1460 1281 1420 1101 
1122 2213 2301 2373 1341 320 2751 2731 2730 
2750 2610 2631 2611 2630 1699 1790 1753 1718 
1845 1772 1882 1808 1900 1901 1864 1917 1918 
1935 1971 1972 1954 1989 1990 2007 2008 2044 
2062 2045 2025 2026 2046 2081 2028 2063 2064 
2117 2099 2134 2135 2170 2082 2155 2152 2172 
2173 2140 2156 2139 2123 2192 2209 2158 2227 
2226 2053 2175 2193 2210 2177 2036 2159 2124 
2035 1821 2176 1838 1946 1911 2107 1581 140 
180 1 1361 40 1541 1301 1928 1540 1141 
1181 1201 1221 1321 1183 1400 1440 2753 2752 
2732 2733 2612 2613 2632 2633 1682 1719 1700 
1664 1681 1754 1827 1809 1736 1884 1883 1846 
1919 1902 1936 1955 1937 1938 1974 1973 1956 
2027 1992 1991 2009 2010 1993 1977 2011 2047 
2029 1959 1905 2065 2083 2030 2012 2153 2171 
2100 2136 2101 2137 2138 2154 2120 2141 2089 
2122 2119 2157 2052 2071 2105 2087 2106 2070 
2050 2033 2000 2088 2069 1839 2051 1857 1964 
2017 2034 1982 1731 1981 1803 160 1820 1910 
1600 1261 1580 1241 1520 1081 1121 1766 2734 
2735 2754 2755 2634 2635 2614 2615 1737 1665 
1683 1701 1865 1828 1847 1791 1866 1885 1867 
1903 1920 1868 1939 1940 1957 1921 1924 1887 
1923 1976 1975 1852 1817 1834 1871 1958 1781 
1941 1835 1711 1994 1995 1798 1960 1925 1906 
2013 2048 2014 2118 1944 2066 2049 2121 2103 
2084 2085 2104 2068 2086 2102 2015 2067 80 
2032 1999 1908 1785 1890 1693 1856 2016 1980 
1998 1926 1837 462 1892 1963 900 1749 1942 
1560 1784 1802 1040 1767 1713 1873 1001 1729 
2737 2736 2757 2756 2617 2616 2637 2636 1702 
1667 1666 1720 1774 1773 1810 1755 1792 1848 
1829 1811 1830 1831 1812 1793 1849 1813 1869 
1922 1775 1904 1794 1832 1870 1886 1795 1851 
1850 1760 1816 1727 1779 1815 1780 1689 1673 
2361 1797 1691 1746 1745 1674 1708 1814 1799 
1100 1888 1943 2031 1978 1140 1709 1961 1996 
1997 1927 1962 820 1695 1874 1889 1945 1710 
1979 1180 762 1909 1676 2325 1783 1120 542 
1853 1220 1675 1891 1712 1818 1819 1300 601 
2759 2738 2758 2739 2564 2567 2565 2566 2570 
2569 2571 2568 2573 2575 2572 2574 2578 2576 
2577 2579 2583 2580 2582 2581 2587 2585 2586 
2584 2588 2589 2590 2591 2593 2594 2595 2592 
2598 2597 2599 2596 2618 2619 2638 2639 1703 
1669 1668 1684 1685 2143 1738 1686 1721 1704 
1756 1757 1722 1758 1739 2250 2374 1670 1740 
1741 1777 2251 1776 2234 2357 1723 1502 1523 
1687 1705 1283 1742 1833 2375 1778 1759 2359 
2376 1744 1796 1726 1762 1724 2323 1671 1725 
2198 1707 2377 1761 2396 2235 2394 2343 1743 
800 1763 2270 1728 461 2253 2287 2306 1020 
2145 1672 840 2271 1080 2019 2288 2307 2199 
2341 341 1060 163 2037 2397 1480 1801 761 
2741 2760 2761 2740 2765 2762 2763 2764 2769 
2767 2768 2766 2771 2770 2773 2772 2774 2777 
2775 2776 2779 2781 2778 2780 2785 2782 2784 
2783 2787 2788 2786 2789 2793 2791 2790 2792 
2797 2795 2794 2796 1694 363 921 822 1340 
941 981 1102 1677 701 1062 423 1240 1202 
402 1021 2285 682 641 861 2178 1401 1262 
980 2319 901 742 801 1222 1601 2160 1000 
2249 404 783 1061 220 2338 260 2392 843 
1142 1282 240 962 2320 2356 2232 883 903 
1381 1182 2214 2302 1421 2126 1184 1543 2215 
2303 1402 1322 922 1043 1947 1203 923 1243 
1342 1023 1162 1621 1382 1003 2305 2216 1303 
1123 2252 983 1223 1582 201 181 2179 41 
2358 1542 640 161 2161 1185 1688 2339 2163 
1483 2393 2395 2196 1422 2180 2360 2304 2233 
1544 2055 2321 2197 1983 2109 1602 162 1564 
660 680 2289 1706 2378 2342 421 1690 1855 
2217 460 520 1500 780 223 2324 1730 1748 
2091 1836 1380 720 561 482 1765 1872 881 
1907 1200 1764 1800 1747 263 862 1041 1854 
1242 802 1692 1260 541 1782 1320 4 123 
422 241 1585 321 2181 521 302 600 381 
124 501 62 721 920 442 740 262 282 
361 264 85 242 722 401 283 463 621 
224 222 323 403 661 760 880 383 681 
343 344 940 304 703 284 960 522 305 
364 781 325 782 582 602 841 583 741 
702 961 683 1082 804 563 662 942 1002 
821 723 803 763 823 664 642 744 1063 
1022 1640 663 863 1204 625 982 1103 1083 
1044 864 1163 1042 943 764 902 825 963 
844 806 884 1144 786 904 785 1024 300 
766 1105 1124 1064 1143 1004 1302 1045 984 
1263 964 1641 2108 925 1145 200 1501 1104 
1106 1562 1383 1482 1264 141 143 1344 1363 
360 42 1463 61 81 2268 1443 480 500 
1404 1424 2340 182 83 1385 261 22 3 
860 2269 1643 420 2322 2127 281 2286 2379 
104 1280 1160 441 63 1360 481 221 560 
700 43 101 540 362 1605 620 1603 2 
142 102 1485 1504 1584 1565 44 144 1525 
1505 25 1624 301 105 26 580 6 5 
45 24 1547 1645 184 1567 183 27 203 
204 66 382 342 443 166 165 244 324 
243 303 322 225 205 147 245 185 285 
206 186 365 266 581 483 345 502 562 
424 385 444 622 405 366 643 326 503 
386 543 544 464 623 684 624 603 645 
743 824 644 704 565 882 604 605 585 
665 584 842 546 566 526 724 626 685 
646 784 705 725 745 765 805 845 787 
924 746 885 905 865 866 807 944 846 
886 1084 985 1025 867 1164 906 1086 945 
1442 1065 1085 1224 965 1225 2162 1125 1087 
1244 1205 1165 1343 1047 1563 1126 1366 1462 
1503 1403 1423 1323 1364 1304 1384 1345 1365 
1227 23 1524 400 2001 121 2073 1965 1642 
82 440 1644 84 1604 103 380 122 1545 
1623 1306 1406 1405 1386 1425 1426 1347 1367 
1387 1465 1466 1484 1445 1427 1546 1446 1428 
1486 1625 1566 1467 1487 1586 1506 64 1526 
1527 1646 1507 1606 46 1626 65 1647 1607 
1627 7 86 67 164 202 47 87 145 
146 125 167 126 88 106 187 127 226 
286 246 207 227 265 189 209 306 384 
208 247 287 346 228 307 267 523 327 
484 504 406 347 328 485 524 445 425 
564 407 465 427 446 426 505 525 466 
545 486 506 547 586 507 487 567 686 
606 607 647 687 666 627 826 726 706 
707 747 767 727 668 827 688 887 788 
708 847 768 868 848 849 907 869 1066 
926 888 1046 986 966 947 946 1026 889 
1005 967 1006 1186 987 1067 1088 1007 1265 
1027 1107 1226 1284 1207 1245 1206 1166 1285 
1187 1128 2144 1622 1324 1325 1305 1266 1286 
1346 1444 1464 1267 1228 1583 1287 1210 1248 
1229 1326 1268 1307 1288 1327 1308 1328 1329 
1368 1407 1388 1349 1348 1369 1447 1409 1408 
1448 1468 1488 1449 1429 1489 1508 1509 1548 
1469 1528 1529 1568 1587 1549 1608 1569 1588 
1589 1648 1628 1609 1649 8 1629 28 29 
49 9 48 69 30 148 68 107 128 
188 108 168 129 149 169 150 170 248 
229 190 269 249 210 268 288 309 289 
308 348 310 290 329 369 368 367 349 
408 389 388 409 428 387 447 467 448 
449 469 527 468 488 508 548 587 528 
568 588 549 569 608 628 589 667 609 
649 630 629 648 650 689 728 669 748 
709 729 769 749 828 808 789 850 809 
829 908 870 890 830 948 909 927 928 
910 968 988 949 929 1028 1008 1146 1068 
1069 1089 1108 1048 1109 1049 1090 1127 1246 
1147 1129 1110 1167 1208 1188 1148 1247 1209 
1168 1189 1211 1249 1190 1230 1289 1269 1250 
1291 1309 1310 1290 1311 1330 1331 1350 1371 
1351 1370 1389 1390 1410 1411 1430 1451 1470 
1450 1431 1471 1490 1491 1510 1511 1531 1530 
1550 1551 1570 1590 1571 1591 1631 1610 1611 
1630 1650 1651 11 10 31 50 70 51 
90 89 109 110 130 111 131 132 152 
151 171 230 172 191 211 212 270 251 
232 231 250 292 291 271 350 311 330 
331 390 371 370 411 391 430 410 429 
431 489 470 450 490 509 510 491 471 
511 550 529 530 551 571 591 590 570 
611 610 631 671 651 670 710 690 711 
691 730 751 750 731 791 790 771 770 
852 831 851 811 810 871 872 891 892 
911 912 931 950 930 971 951 970 989 
969 1010 1011 990 1009 991 1051 1050 1029 
1030 1031 1091 1071 1070 1092 1132 1130 1112 
1111 1149 1131 1170 1151 1150 1169 1192 1191 
1212 1251 1231 1233 1232 1270 1292 1272 1271 
1293 1312 1333 1313 1332 1353 1352 1372 1373 
1392 1412 1413 1391 1433 1453 1452 1432 1473 
1513 1492 1472 1493 1533 1553 1532 1512 1593 
1572 1592 1573 1552 1632 1612 1613 1633 1652 
1653 12 13 53 33 32 52 71 73 
72 91 92 93 112 113 133 134 154 
153 174 192 193 194 173 214 213 253 
234 233 252 273 293 294 272 313 312 
332 372 373 351 352 413 393 412 392 
432 451 452 472 473 493 492 552 512 
513 532 531 553 592 572 593 573 613 
633 612 632 652 672 673 653 692 713 
712 693 753 732 733 752 793 773 772 
792 853 813 812 832 833 894 874 873 
893 913 914 933 932 952 973 953 972 
1013 993 1012 992 1053 1032 1052 1033 1093 
1094 1073 1072 1114 1113 1133 1134 1152 1171 
1172 1153 1255 1234 1254 1213 1235 1275 1253 
1274 1252 1335 1273 1294 1315 1375 1314 1334 
1355 1395 1394 1374 1354 1393 1414 1435 1434 
1415 1455 1454 1474 1475 1515 1495 1494 1514 
1554 1575 1534 1535 1555 1615 1574 1594 1595 
1634 1635 1655 1614 14 35 15 1654 54 
55 74 75 34 95 94 114 115 176 
155 135 156 195 175 196 215 276 296 
235 255 275 295 254 315 274 334 314 
333 375 374 354 353 395 394 415 434 
455 435 414 433 453 474 454 475 495 
515 514 494 533 555 534 554 594 574 
595 575 635 634 614 615 655 654 675 
674 695 715 694 714 735 775 734 754 
755 795 794 815 774 814 835 855 896 
834 854 875 935 895 916 915 955 975 
934 974 954 1015 995 1035 994 1014 1055 
1075 1054 1034 1095 1074 1155 1115 1136 1195 
1175 1154 1135 1214 1193 1194 1173 1174 1437 
1296 1276 1477 1295 1316 1457 1336 1497 1517 
1356 1376 1537 1396 1557 1416 1577 1436 1597 
1637 1617 1456 1476 17 1536 37 1516 1657 
1496 57 1576 1556 77 97 1616 1596 117 
1636 1656 137 157 36 177 16 56 217 
197 76 237 96 277 116 297 136 317 
257 236 337 216 357 256 377 417 397 
437 457 316 376 336 356 497 335 477 
355 517 537 396 416 577 557 476 456 
617 436 597 657 637 496 516 677 536 
697 535 737 556 717 576 757 596 777 
797 817 616 636 656 857 676 696 837 
897 736 917 716 877 937 756 776 957 
796 977 816 997 876 856 836 1037 1017 
1057 936 1077 956 1117 996 976 1097 1177 
1137 1016 1036 1197 1056 1217 1076 1116 1257 
1237 1096 1277 1157 1156 1297 1337 1317 1196 
1176 1215 1377 1357 1216 1397 1236 1417 1256 
1319 1339 258 238 278 1359 1379 318 298 
358 338 1419 1399 1459 398 378 1439 438 
1479 418 1499 1519 458 1539 478 1559 498 
1579 518 538 1619 1599 558 1639 578 1659 
598 19 618 39 59 638 79 99 658 
139 119 698 678 718 179 738 159 758 
778 219 199 239 259 818 838 798 299 
858 878 319 279 898 918 339 359 958 
938 399 379 419 439 998 978 1058 1018 
479 1038 499 459 1098 539 1078 519 1138 
559 579 1118 599 1158 1178 619 1198 639 
1238 1218 659 679 1278 699 1258 719 759 
1318 739 1298 799 779 1358 1338 1398 819 
839 1378 1418 1458 859 879 1438 899 1478 
1498 919 1518 1538 939 1558 979 959 999 
1019 1598 1578 1618 1059 1039 1638 1658 1099 
18 1079 38 1139 1119 58 78 1159 1179 
98 138 1199 1219 118 158 1239 1259 178 
198 1279 1299 218 2401 2400 2398 2399 2405 
2403 2402 2404 2408 2407 2406 2409 2410 2413 
2411 2412 2415 2417 2414 2416 2418 2421 2420 
2419 2427 2424 2426 2425 2423 2422 2431 2428 
2430 2429 2432 2434 2435 2433 2438 2436 2439 
2437 2440 2441 2443 2442 2444 2445 2447 2446 
2448 2451 2450 2449 2453 2455 2452 2454 2458 
2456 2459 2457 2463 2461 2460 2462 2464 2466 
2467 2465 2469 2471 2468 2470 2473 2472 2474 
2475 2480 2479 2478 2481 2477 2476 2482 2483 
2484 2485 2487 2488 2486 2489 2493 2492 2490 
2491 2497 2496 2495 2494 2501 2499 2498 2500 
2505 2503 2504 2502 2509 2508 2507 2506 2511 
2510 2513 2512 2517 2515 2514 2516 2521 2520 
2518 2519 2525 2522 2523 2524 2527 2528 2529 
2526 2530 2531 2532 2533 2534 2535 2536 2537 
2538 2539 2543 2541 2540 2542 2544 2545 2546 
2547 2548 2549 2550 2551 2552 2554 2553 2555 
2558 2556 2557 2559 2560 2561 2562 2563 
FIELD FieldData 7
r 3 2798 float
-0.5125 -0.4875 0 -0.5125 -0.4625 0 -0.5375 -0.4875 0 
-0.5375 -0.4625 0 -0.487805 -0.4875 0 -0.463415 -0.4875 0 
-0.463415 -0.4625 0 -0.487805 -0.4625 0 -0.439024 -0.4625 0 
-0.414634 -0.4625 0 -0.414634 -0.4875 0 -0.439024 -0.4875 0 
-0.390244 -0.4625 0 -0.390244 -0.4875 0 -0.365854 -0.4625 0 
-0.365854 -0.4875 0 -0.341463 -0.4625 0 -0.317073 -0.4625 0 
-0.341463 -0.4875 0 -0.317073 -0.4875 0 -0.268293 -0.4875 0 
-0.268293 -0.4625 0 -0.292683 -0.4875 0 -0.292683 -0.4625 0 
-0.219512 -0.4875 0 -0.243902 -0.4875 0 -0.243902 -0.4625 0 
-0.219512 -0.4625 0 -0.195122 -0.4875 0 -0.170732 -0.4625 0 
-0.195122 -0.4625 0 -0.170732 -0.4875 0 -0.121951 -0.4875 0 
-0.121951 -0.4625 0 -0.146341 -0.4875 0 -0.146341 -0.4625 0 
-0.0731707 -0.4625 0 -0.097561 -0.4875 0 -0.0731707 -0.4875 0 
-0.097561 -0.4625 0 -0.0487805 -0.4875 0 -0.0487805 -0.4625 0 
-0.0243903 -0.4625 0 -1.86265e-08 -0.4625 0 -0.0243903 -0.4875 0 
-1.86265e-08 -0.4875 0 0.0243902 -0.4625 0 0.0243902 -0.4875 0 
0.0487805 -0.4875 0 0.0487805 -0.4625 0 0.097561 -0.4625 0 
0.0731707 -0.4625 0 0.097561 -0.4875 0 0.0731707 -0.4875 0 
0.146341 -0.4875 0 0.121951 -0.4875 0 0.121951 -0.4625 0 
0.146341 -0.4625 0 0.170732 -0.4875 0 0.195122 -0.4875 0 
0.195122 -0.4625 0 0.170732 -0.4625 0 0.219512 -0.4875 0 
0.219512 -0.4625 0 0.243902 -0.4875 0 0.243902 -0.4625 0 
0.292683 -0.4625 0 0.268293 -0.4625 0 0.268293 -0.4875 0 
0.292683 -0.4875 0 0.317073 -0.4875 0 0.317073 -0.4625 0 
0.341463 -0.4875 0 0.341463 -0.4625 0 0.365854 -0.4625 0 
0.390244 -0.4875 0 0.390244 -0.4625 0 0.365854 -0.4875 0 
0.439024 -0.4625 0 0.414634 -0.4625 0 0.439024 -0.4875 0 
0.414634 -0.4875 0 0.463415 -0.4625 0 0.487805 -0.4875 0 
0.487805 -0.4625 0 0.463415 -0.4875 0 0.5375 -0.4625 0 
0.5375 -0.4875 0 0.5125 -0.4625 0 0.5125 -0.4875 0 
-0.5125 -0.4125 0 -0.5375 -0.4125 0 -0.5375 -0.4375 0 
-0.5125 -0.4375 0 -0.488649 -0.436247 0 -0.489152 -0.409087 0 
-0.465582 -0.436655 0 -0.466455 -0.410317 0 -0.419011 -0.437316 0 
-0.442531 -0.43638 0 -0.443101 -0.409912 0 -0.419586 -0.411807 0 
-0.395592 -0.412186 0 -0.372218 -0.409155 0 -0.394796 -0.437508 0 
-0.371502 -0.435991 0 -0.305514 -0.41079 0 -0.349708 -0.410347 0 
-0.305809 -0.438495 0 -0.348699 -0.437627 0 -0.32755 -0.404886 0 
-0.327463 -0.433147 0 -0.26328 -0.437553 0 -0.283903 -0.404093 0 
-0.261572 -0.410799 0 -0.284409 -0.432846 0 -0.218067 -0.435748 0 
-0.21445 -0.410514 0 -0.238761 -0.409336 0 -0.240322 -0.436246 0 
-0.195385 -0.438524 0 -0.16479 -0.405401 0 -0.193152 -0.406776 0 
-0.176776 -0.428196 0 -0.157976 -0.438758 0 -0.13509 -0.435664 0 
-0.120038 -0.410011 0 -0.143511 -0.41086 0 -0.112378 -0.437445 0 
-0.075343 -0.409421 0 -0.0916568 -0.433099 0 -0.0985187 -0.405549 0 
-0.0702879 -0.437585 0 -0.0522594 -0.412338 0 -0.0251395 -0.434366 0 
-0.00333908 -0.43716 0 -0.0466317 -0.43722 0 -0.00735548 -0.410136 0 
-0.0298181 -0.405947 0 0.038755 -0.410827 0 0.0155769 -0.409997 0 
0.042154 -0.437222 0 0.0193146 -0.436369 0 0.0645848 -0.435232 0 
0.0850956 -0.407837 0 0.0870045 -0.439289 0 0.0631604 -0.410048 0 
0.136564 -0.412363 0 0.145521 -0.436101 0 0.11561 -0.404032 0 
0.121832 -0.438983 0 0.104104 -0.425797 0 0.167554 -0.436202 0 
0.189814 -0.436016 0 0.159345 -0.407617 0 0.180905 -0.409531 0 
0.213035 -0.438077 0 0.205292 -0.411958 0 0.229533 -0.414944 0 
0.238322 -0.437926 0 0.256755 -0.41274 0 0.262231 -0.436476 0 
0.283899 -0.412316 0 0.285483 -0.437563 0 0.333808 -0.436852 0 
0.307665 -0.413947 0 0.310084 -0.438057 0 0.334797 -0.412816 0 
0.361954 -0.415954 0 0.393741 -0.415821 0 0.38319 -0.437223 0 
0.358235 -0.438675 0 0.434426 -0.404587 0 0.440445 -0.440421 0 
0.409628 -0.439888 0 0.422484 -0.421728 0 0.475572 -0.441475 0 
0.490881 -0.426948 0 0.484415 -0.404498 0 0.45668 -0.426216 0 
0.46129 -0.404109 0 0.5125 -0.4375 0 0.5375 -0.4375 0 
0.5125 -0.4125 0 0.5375 -0.4125 0 -0.5375 -0.3625 0 
-0.5125 -0.3625 0 -0.5125 -0.3875 0 -0.5375 -0.3875 0 
-0.467367 -0.384078 0 -0.466649 -0.35763 0 -0.48962 -0.352836 0 
-0.489494 -0.38101 0 -0.444065 -0.38405 0 -0.420384 -0.385872 0 
-0.444071 -0.357587 0 -0.420163 -0.36146 0 -0.392348 -0.36295 0 
-0.39702 -0.386718 0 -0.372919 -0.38324 0 -0.360946 -0.360534 0 
-0.306657 -0.383775 0 -0.328188 -0.375268 0 -0.31946 -0.353157 0 
-0.348482 -0.383591 0 -0.265419 -0.383417 0 -0.296319 -0.352011 0 
-0.258942 -0.358507 0 -0.286298 -0.373727 0 -0.232626 -0.359509 0 
-0.241892 -0.383315 0 -0.218015 -0.385047 0 -0.200427 -0.373021 0 
-0.180086 -0.385906 0 -0.186031 -0.353148 0 -0.164586 -0.365802 0 
-0.109314 -0.356572 0 -0.14867 -0.383053 0 -0.124949 -0.384596 0 
-0.133775 -0.359378 0 -0.100912 -0.378644 0 -0.053161 -0.386563 0 
-0.0776885 -0.3833 0 -0.0513044 -0.360498 0 -0.0747797 -0.359382 0 
-0.0256889 -0.350871 0 -0.0303462 -0.377846 0 -0.00828001 -0.383352 0 
-0.00408448 -0.356617 0 0.0366967 -0.384142 0 0.0404169 -0.358825 0 
0.014279 -0.382895 0 0.0179892 -0.354924 0 0.0775566 -0.373186 0 
0.0964737 -0.38689 0 0.0595677 -0.385261 0 0.0612663 -0.352688 0 
0.130351 -0.355329 0 0.147739 -0.384398 0 0.12512 -0.381164 0 
0.105919 -0.363021 0 0.170382 -0.379044 0 0.181411 -0.355788 0 
0.152755 -0.357094 0 0.192801 -0.386818 0 0.218282 -0.388384 0 
0.242485 -0.392217 0 0.227649 -0.364278 0 0.20345 -0.363489 0 
0.254467 -0.372545 0 0.272963 -0.391644 0 0.292252 -0.380117 0 
0.273456 -0.359809 0 0.334888 -0.353506 0 0.345917 -0.392538 0 
0.327305 -0.3745 0 0.303997 -0.360143 0 0.313361 -0.392832 0 
0.374911 -0.397931 0 0.363897 -0.351258 0 0.357584 -0.372513 0 
0.382897 -0.377057 0 0.433154 -0.358558 0 0.401264 -0.364902 0 
0.405552 -0.396399 0 0.421631 -0.380173 0 0.447903 -0.382974 0 
0.488343 -0.382143 0 0.467923 -0.372114 0 0.490073 -0.355238 0 
0.453521 -0.351113 0 0.5375 -0.3625 0 0.5375 -0.3875 0 
0.5125 -0.3875 0 0.5125 -0.3625 0 -0.5125 -0.3125 0 
-0.5125 -0.3375 0 -0.5375 -0.3375 0 -0.5375 -0.3125 0 
-0.465748 -0.303862 0 -0.469036 -0.33134 0 -0.489718 -0.323256 0 
-0.423156 -0.306866 0 -0.403188 -0.340845 0 -0.401419 -0.316454 0 
-0.447137 -0.327938 0 -0.426876 -0.334284 0 -0.376685 -0.319443 0 
-0.352512 -0.324227 0 -0.376116 -0.342947 0 -0.326985 -0.324699 0 
-0.304532 -0.327236 0 -0.342668 -0.347242 0 -0.274347 -0.342525 0 
-0.283137 -0.317481 0 -0.260802 -0.317149 0 -0.213916 -0.300516 0 
-0.22456 -0.323644 0 -0.21315 -0.348893 0 -0.244568 -0.336404 0 
-0.24208 -0.303699 0 -0.16558 -0.310032 0 -0.151786 -0.343603 0 
-0.173308 -0.332435 0 -0.199207 -0.328113 0 -0.190273 -0.305009 0 
-0.123913 -0.333805 0 -0.116271 -0.302666 0 -0.142033 -0.318928 0 
-0.103181 -0.321257 0 -0.090432 -0.342805 0 -0.0679705 -0.330243 0 
-0.0816799 -0.31 0 -0.0553431 -0.305144 0 -0.0337375 -0.313245 0 
-0.0460838 -0.336126 0 -0.0151443 -0.326506 0 0.0241273 -0.303676 0 