# vtk DataFile Version 4.0
vtk output
ASCII
DATASET POLYDATA
FIELD FieldData 4
domain 1 3 string
domain_min:-20|-15
domain_max:20|15
cell_size:0.05

variables 1 2 string
dt:0.000372678
T:0.462876

constants 1 10 string
xsize:2
ysize:1
csize:0.05
dx:0.0238095
h:0.025
rho0:1000
mass:0.566894
g:1|0
c:13.4164
CFL:0.2

functions 1 8 string
time:T=(T+dt)
continuity:rho_dot=((-(rho*sph_D00(v,mass,rho,Wp52220)))+(((0.1*c)*h)*sph_L00(rho,mass,rho,Wp52220)))
irho:rho=(rho+int1((rho_dot,dt))
EOS:p=(((c^2)*(rho-rho0))+10000)
euler:a=if((gid,(0*v),(((-((1/rho)*sph_G11(p,mass,rho,Wp52220)))+(0.01*sph_L00(v,mass,rho,Wp52220)))+g))
vel:v=(v+int1((a,dt))
pos:r=(r+int1((v,dt))
new_dt:dt=(CFL*min((sqrt(((h/fmax(magnitude((a)))),(h/c)))

POINTS 2798 float
-0.5375 -0.4875 0 -0.5375 -0.4625 0 -0.5125 -0.4875 0 
-0.5125 -0.4625 0 -0.487805 -0.4875 0 -0.463415 -0.4875 0 
-0.463415 -0.4625 0 -0.487805 -0.4625 0 -0.414634 -0.4625 0 
-0.439024 -0.4875 0 -0.414634 -0.4875 0 -0.439024 -0.4625 0 
-0.390244 -0.4625 0 -0.365854 -0.4625 0 -0.390244 -0.4875 0 
-0.365854 -0.4875 0 -0.317073 -0.4625 0 -0.341463 -0.4875 0 
-0.317073 -0.4875 0 -0.341463 -0.4625 0 -0.268293 -0.4875 0 
-0.268293 -0.4625 0 -0.292683 -0.4625 0 -0.292683 -0.4875 0 
-0.219512 -0.4875 0 -0.219512 -0.4625 0 -0.243902 -0.4625 0 
-0.243902 -0.4875 0 -0.170732 -0.4625 0 -0.195122 -0.4625 0 
-0.170732 -0.4875 0 -0.195122 -0.4875 0 -0.121951 -0.4875 0 
-0.146341 -0.4625 0 -0.146341 -0.4875 0 -0.121951 -0.4625 0 
-0.097561 -0.4875 0 -0.097561 -0.4625 0 -0.0731707 -0.4875 0 
-0.0731707 -0.4625 0 -0.0487805 -0.4625 0 -0.0487805 -0.4875 0 
-0.0243903 -0.4625 0 -1.86265e-08 -0.4875 0 -0.0243903 -0.4875 0 
-1.86265e-08 -0.4625 0 0.0487805 -0.4625 0 0.0243902 -0.4875 0 
0.0243902 -0.4625 0 0.0487805 -0.4875 0 0.0731707 -0.4875 0 
0.097561 -0.4875 0 0.097561 -0.4625 0 0.0731707 -0.4625 0 
0.146341 -0.4625 0 0.146341 -0.4875 0 0.121951 -0.4625 0 
0.121951 -0.4875 0 0.195122 -0.4875 0 0.195122 -0.4625 0 
0.170732 -0.4875 0 0.170732 -0.4625 0 0.219512 -0.4875 0 
0.243902 -0.4625 0 0.219512 -0.4625 0 0.243902 -0.4875 0 
0.292683 -0.4875 0 0.292683 -0.4625 0 0.268293 -0.4625 0 
0.268293 -0.4875 0 0.317073 -0.4875 0 0.341463 -0.4625 0 
0.317073 -0.4625 0 0.341463 -0.4875 0 0.365854 -0.4625 0 
0.365854 -0.4875 0 0.390244 -0.4625 0 0.390244 -0.4875 0 
0.414634 -0.4875 0 0.414634 -0.4625 0 0.439024 -0.4875 0 
0.439024 -0.4625 0 0.463415 -0.4875 0 0.463415 -0.4625 0 
0.487805 -0.4875 0 0.487805 -0.4625 0 0.5125 -0.4625 0 
0.5375 -0.4625 0 0.5375 -0.4875 0 0.5125 -0.4875 0 
-0.5375 -0.4125 0 -0.5375 -0.4375 0 -0.5125 -0.4125 0 
-0.5125 -0.4375 0 -0.488016 -0.412371 0 -0.487867 -0.437492 0 
-0.463742 -0.436958 0 -0.464215 -0.410939 0 -0.416658 -0.43708 0 
-0.441081 -0.410334 0 -0.440219 -0.436746 0 -0.417835 -0.411163 0 
-0.370428 -0.412035 0 -0.394257 -0.411642 0 -0.392776 -0.437258 0 
-0.368687 -0.437402 0 -0.320549 -0.43728 0 -0.322668 -0.411735 0 
-0.346484 -0.412028 0 -0.344524 -0.437407 0 -0.274177 -0.412917 0 
-0.298641 -0.412361 0 -0.296471 -0.437507 0 -0.272036 -0.437682 0 
-0.222647 -0.437842 0 -0.224495 -0.413426 0 -0.249427 -0.413212 0 
-0.247392 -0.437764 0 -0.173091 -0.437985 0 -0.197961 -0.437709 0 
-0.174258 -0.413925 0 -0.199504 -0.413224 0 -0.147962 -0.438022 0 
-0.12317 -0.413902 0 -0.122877 -0.437979 0 -0.148697 -0.414115 0 
-0.098019 -0.437835 0 -0.0726608 -0.41393 0 -0.0731411 -0.437985 0 
-0.0979318 -0.413527 0 -0.0471764 -0.414058 0 -0.0218081 -0.413584 0 
-0.0231544 -0.437874 0 -0.0480882 -0.438039 0 0.00153988 -0.437803 0 
0.0262369 -0.437892 0 0.0281699 -0.413534 0 0.00323177 -0.413333 0 
0.078067 -0.413346 0 0.0509817 -0.43782 0 0.0756528 -0.437815 0 
0.0531641 -0.413384 0 0.127768 -0.413313 0 0.149606 -0.437815 0 
0.10294 -0.413283 0 0.100302 -0.437783 0 0.124937 -0.437799 0 
0.177405 -0.413368 0 0.174291 -0.437822 0 0.19896 -0.43783 0 
0.152582 -0.413368 0 0.202157 -0.413314 0 0.226797 -0.413224 0 
0.22359 -0.437821 0 0.248156 -0.4378 0 0.297108 -0.437801 0 
0.275784 -0.413044 0 0.272645 -0.437777 0 0.251331 -0.413123 0 
0.324553 -0.413016 0 0.321592 -0.437824 0 0.300208 -0.413088 0 
0.348619 -0.412538 0 0.345934 -0.437684 0 0.396008 -0.412074 0 
0.372427 -0.412382 0 0.370081 -0.437645 0 0.394151 -0.437656 0 
0.441213 -0.410193 0 0.41886 -0.409956 0 0.417522 -0.436799 0 
0.440239 -0.436765 0 0.488398 -0.413258 0 0.488397 -0.43806 0 
0.463884 -0.437936 0 0.464348 -0.412958 0 0.5125 -0.4375 0 
0.5375 -0.4125 0 0.5375 -0.4375 0 0.5125 -0.4125 0 
-0.5125 -0.3625 0 -0.5375 -0.3875 0 -0.5125 -0.3875 0 
-0.5375 -0.3625 0 -0.464482 -0.357687 0 -0.488051 -0.387025 0 
-0.464441 -0.384486 0 -0.488012 -0.361744 0 -0.441868 -0.356755 0 
-0.441592 -0.383627 0 -0.418826 -0.358797 0 -0.418468 -0.385012 0 
-0.395489 -0.359687 0 -0.371378 -0.386449 0 -0.371898 -0.360784 0 
-0.395041 -0.385741 0 -0.348118 -0.36085 0 -0.300051 -0.362321 0 
-0.347562 -0.38647 0 -0.32379 -0.386125 0 -0.324284 -0.360592 0 
-0.250316 -0.38876 0 -0.275134 -0.388189 0 -0.250523 -0.364411 0 
-0.299684 -0.387256 0 -0.275403 -0.36354 0 -0.225271 -0.365255 0 
-0.225233 -0.389219 0 -0.199687 -0.365163 0 -0.174416 -0.390189 0 
-0.173872 -0.366751 0 -0.199958 -0.389039 0 -0.147696 -0.367313 0 
-0.122647 -0.390142 0 -0.121594 -0.366588 0 -0.14851 -0.390572 0 
-0.097114 -0.389504 0 -0.0715485 -0.390238 0 -0.0958278 -0.36571 0 
-0.0699734 -0.366876 0 -0.0175966 -0.365908 0 -0.0437372 -0.367149 0 
-0.0199094 -0.389628 0 -0.0456825 -0.390439 0 0.00789709 -0.364827 0 
0.00540283 -0.389052 0 0.0304778 -0.389361 0 0.0330287 -0.365319 0 
0.0807524 -0.389045 0 0.0836161 -0.364854 0 0.0556688 -0.389122 0 
0.0583972 -0.365012 0 0.130822 -0.388922 0 0.105815 -0.38896 0 
0.133837 -0.364629 0 0.108733 -0.364788 0 0.18047 -0.388892 0 
0.158722 -0.364468 0 0.155694 -0.388949 0 0.183366 -0.364278 0 
0.207888 -0.364003 0 0.22969 -0.388526 0 0.232342 -0.363727 0 
0.205144 -0.388725 0 0.25414 -0.388345 0 0.281044 -0.363301 0 
0.278518 -0.388231 0 0.256733 -0.36349 0 0.305159 -0.363091 0 
0.328874 -0.362217 0 0.302821 -0.388226 0 0.326892 -0.387852 0 
0.350551 -0.38696 0 0.374012 -0.386722 0 0.39843 -0.359417 0 
0.375369 -0.360828 0 0.397263 -0.385936 0 0.352151 -0.360928 0 
0.441951 -0.383138 0 0.419886 -0.382807 0 0.420838 -0.355409 0 
0.442653 -0.355524 0 0.464598 -0.387414 0 0.464817 -0.361404 0 
0.488409 -0.363326 0 0.488428 -0.388336 0 0.5125 -0.3625 0 
0.5125 -0.3875 0 0.5375 -0.3875 0 0.5375 -0.3625 0 
-0.5375 -0.3125 0 -0.5375 -0.3375 0 -0.5125 -0.3125 0 
-0.5125 -0.3375 0 -0.487921 -0.336615 0 -0.464477 -0.330533 0 
-0.464636 -0.303052 0 -0.487889 -0.311624 0 -0.442056 -0.32976 0 
-0.419388 -0.306134 0 -0.419092 -0.332531 0 -0.44225 -0.302742 0 
-0.37222 -0.335116 0 -0.396168 -0.307439 0 -0.37252 -0.30949 0 
-0.395806 -0.333564 0 -0.300234 -0.31267 0 -0.300115 -0.337495 0 
-0.348417 -0.335278 0 -0.324571 -0.30995 0 -0.324448 -0.335208 0 
-0.348638 -0.309763 0 -0.250541 -0.340186 0 -0.275471 -0.338927 0 
-0.250735 -0.316072 0 -0.275688 -0.314251 0 -0.225057 -0.341563 0 
-0.225065 -0.318134 0 -0.17315 -0.343549 0 -0.198961 -0.31814 0 
-0.1992 -0.341556 0 -0.172776 -0.320457 0 -0.146393 -0.321266 0 
-0.120596 -0.343181 0 -0.146816 -0.344261 0 -0.120127 -0.319886 0 
-0.0946451 -0.342149 0 -0.0939566 -0.318807 0 -0.0684775 -0.343835 0 
-0.0675506 -0.321047 0 -0.0405962 -0.321585 0 -0.0418868 -0.344196 0 
-0.0153801 -0.342401 0 -0.0136465 -0.319193 0 0.0354053 -0.341393 0 
0.0123548 -0.316321 0 0.0102711 -0.340584 0 0.0374025 -0.317479 0 
0.0629424 -0.317328 0 0.0609332 -0.341082 0 0.0884466 -0.316465 0 
0.0862974 -0.340655 0 0.136312 -0.340345 0 0.11131 -0.340578 0 
0.113438 -0.316175 0 0.138206 -0.315922 0 0.163013 -0.315366 0 
0.185793 -0.33952 0 0.187715 -0.314803 0 0.161183 -0.339914 0 
0.236911 -0.314062 0 0.210269 -0.339189 0 0.234719 -0.338884 0 
0.212345 -0.314446 0 0.259095 -0.338573 0 0.261225 -0.313518 0 
0.28328 -0.338194 0 0.285191 -0.312794 0 0.330518 -0.336117 0 
0.308778 -0.311759 0 0.331899 -0.309647 0 0.307143 -0.337599 0 
0.399474 -0.332565 0 0.376613 -0.334719 0 0.35354 -0.334624 0 
0.377685 -0.308466 0 0.354723 -0.308139 0 0.422245 -0.300015 0 
0.400307 -0.305284 0 0.443432 -0.3277 0 0.421609 -0.327731 0 
0.488364 -0.338274 0 0.465632 -0.307249 0 0.488346 -0.313146 0 
0.465122 -0.334768 0 0.5125 -0.3375 0 0.5125 -0.3125 0 
0.5375 -0.3125 0 0.5375 -0.3375 0 -0.5375 -0.2875 0 
-0.5375 -0.2625 0 -0.5125 -0.2625 0 -0.5125 -0.2875 0 
-0.488122 -0.26128 0 -0.464971 -0.275449 0 -0.487945 -0.286591 0 
-0.442421 -0.27585 0 -0.419597 -0.279484 0 -0.419629 -0.252796 0 
-0.372719 -0.283963 0 -0.396461 -0.281378 0 -0.396376 -0.255387 0 
-0.372625 -0.258549 0 -0.32419 -0.259523 0 -0.348697 -0.284403 0 
-0.30026 -0.287678 0 -0.324478 -0.284738 0 -0.348455 -0.259193 0 
-0.30007 -0.262563 0 -0.250815 -0.292057 0 -0.275825 -0.289489 0 
-0.250454 -0.26821 0 -0.275601 -0.264806 0 -0.224501 -0.271902 0 
-0.224987 -0.294931 0 -0.171723 -0.274428 0 -0.198074 -0.271721 0 
-0.171076 -0.25151 0 -0.198658 -0.294886 0 -0.172363 -0.297421 0 
-0.117811 -0.250856 0 -0.144535 -0.252465 0 -0.118768 -0.273725 0 
-0.119626 -0.296709 0 -0.145302 -0.275321 0 -0.145985 -0.298303 0 
-0.066669 -0.298469 0 -0.0654393 -0.276006 0 -0.0932453 -0.295657 0 
-0.0641217 -0.253692 0 -0.0920666 -0.272683 0 -0.0104632 -0.273905 0 
-0.0380706 -0.277318 0 -0.0120488 -0.296411 0 -0.00949099 -0.25141 0 
-0.0394807 -0.299314 0 -0.0368906 -0.255321 0 0.0394502 -0.293427 0 
0.0162036 -0.2682 0 0.0415375 -0.26931 0 0.0143803 -0.292143 0 
0.0923738 -0.268234 0 0.0647514 -0.293581 0 0.0903042 -0.292373 0 
0.0669275 -0.269768 0 0.115383 -0.291692 0 0.142559 -0.266896 0 
0.140172 -0.291393 0 0.117583 -0.267349 0 0.189841 -0.290262 0 
0.19285 -0.265956 0 0.167578 -0.266539 0 0.16496 -0.290844 0 
0.242169 -0.264081 0 0.214682 -0.289881 0 0.239307 -0.2892 0 
0.21779 -0.265319 0 0.289342 -0.260948 0 0.263456 -0.288201 0 
0.265981 -0.2625 0 0.287153 -0.287056 0 0.334831 -0.255735 0 
0.333278 -0.282885 0 0.312319 -0.258889 0 0.31046 -0.28555 0 
[...]
POINT_DATA 2798
SCALARS id float
LOOKUP_TABLE default
2600 2601 2620 2621 2640 2642 2643 2641 2647 
2644 2646 2645 2649 2651 2648 2650 2655 2652 
2654 2653 2658 2659 2657 2656 2662 2663 2661 
2660 2667 2665 2666 2664 2670 2669 2668 2671 
2672 2673 2674 2675 2677 2676 2679 2680 2678 
2681 2685 2682 2683 2684 2686 2688 2689 2687 
2693 2692 2691 2690 2696 2697 2694 2695 2698 
2701 2699 2700 2704 2705 2703 2702 2706 2709 
2707 2708 2711 2710 2713 2712 2714 2715 2716 
2717 2718 2719 2720 2721 2723 2743 2742 2722 
2603 2602 2623 2622 1661 1660 1678 1679 1714 
1697 1696 1715 1751 1733 1732 1750 1786 1787 
1769 1768 1823 1805 1804 1822 1858 1859 1841 
1840 1894 1876 1895 1877 1912 1931 1930 1913 
1948 1967 1966 1949 1985 2003 2002 1984 2020 
2038 2039 2021 2075 2056 2074 2057 2111 2128 
2093 2092 2110 2147 2146 2164 2129 2165 2183 
2182 2200 2236 2219 2218 2201 2255 2254 2237 
2273 2272 2309 2291 2290 2308 2345 2327 2326 
2344 2381 2380 2362 2363 2724 2745 2744 2725 
2625 2604 2624 2605 1681 1662 1680 1663 1699 
1698 1717 1716 1735 1752 1753 1734 1771 1807 
1770 1788 1789 1842 1824 1843 1806 1825 1861 
1860 1879 1896 1897 1878 1915 1932 1933 1914 
1950 1968 1951 1969 2005 1987 2004 1986 2023 
2022 2040 2041 2076 2077 2058 2059 2112 2094 
2113 2095 2148 2131 2130 2149 2167 2184 2185 
2166 2202 2221 2220 2203 2239 2257 2238 2256 
2274 2292 2311 2293 2310 2275 2346 2328 2329 
2347 2364 2365 2383 2382 2727 2726 2746 2747 
2607 2606 2627 2626 1664 1682 1683 1665 1700 
1719 1718 1701 1754 1737 1755 1736 1809 1808 
1772 1791 1790 1773 1844 1826 1845 1827 1862 
1863 1898 1881 1880 1899 1917 1934 1916 1935 
1952 1953 1970 1971 1989 1988 2006 2007 2042 
2025 2024 2043 2061 2060 2079 2078 2114 2096 
2097 2115 2133 2150 2151 2132 2187 2168 2186 
2169 2204 2205 2222 2223 2258 2241 2259 2240 
2312 2294 2276 2295 2277 2331 2313 2348 2330 
2384 2367 2385 2366 2728 2729 2749 2748 2608 
2609 2629 2628 1667 1684 1666 1702 1720 1721 
1756 1738 1739 1757 1793 1774 1810 1792 1775 
1811 1846 1828 1847 1829 1865 1864 1901 1883 
1902 1882 1900 1938 1920 1937 1936 1919 1918 
1972 1973 1954 1974 1955 2009 1991 2008 2010 
1990 1992 2044 2027 2045 2026 2081 2062 2080 
2063 2098 2117 2116 2099 2152 2153 2135 2134 
2189 2170 2188 2171 2225 2206 2207 2224 2261 
2260 2243 2242 2297 2296 2278 2279 2314 2332 
2349 2350 2387 2368 2386 2730 2750 2751 2731 
2630 2610 2611 2631 1685 1668 1686 1669 1703 
1722 1723 1704 1759 1741 1740 1758 1794 1777 
1776 1795 1830 1812 1813 1831 1849 1867 1868 
1848 1866 1884 1904 1885 1903 1886 1940 1921 
1939 1922 1957 1975 1956 1958 1976 2012 1994 
1993 2011 2029 2046 2028 2047 2065 2064 2083 
2082 2118 2101 2100 2136 2119 2154 2137 2155 
2173 2190 2172 2191 2209 2226 2227 2208 2245 
2262 2244 2263 2298 2281 2280 2351 2334 2316 
2333 2352 2315 2369 2388 2370 2389 2752 2732 
2753 2733 2612 2613 2632 2633 1687 1670 1688 
1671 1724 1705 1706 1725 1743 1760 1742 1761 
1796 1778 1779 1797 1851 1814 1815 1832 1833 
1869 1850 1870 1888 1887 1905 1906 1942 1923 
1924 1941 1960 1977 1996 1978 1959 1997 2013 
1995 2014 2032 2048 2031 2049 2030 2084 2050 
2066 2067 2068 2103 2104 2086 2102 2085 2139 
2138 2120 2121 2175 2157 2174 2156 2193 2228 
2192 2210 2211 2247 2229 2264 2246 2300 2282 
2299 2317 2336 2318 2335 2372 2353 2371 2390 
2354 2755 2734 2735 2754 2615 2634 2614 2635 
1689 1690 1672 1673 1726 1707 1727 1708 1745 
1744 1763 1762 1781 1798 1780 1817 1816 1854 
1834 1852 1835 1853 1872 1871 1908 1907 1889 
1890 1925 1943 1927 1926 1961 1979 1962 1944 
1999 1980 1998 2033 2015 2017 2016 2070 2069 
2052 2051 2034 2106 2087 2088 2105 2123 2122 
2141 2140 2176 2177 2159 2158 2212 2213 2195 
2194 2231 2248 2230 2265 2283 2301 2266 2302 
2284 2338 2319 2337 2320 2373 2391 2355 2356 
2392 2756 2757 2736 2737 2616 2636 2617 2637 
1675 1691 1674 1692 1709 1728 1729 1710 1765 
1764 1746 1747 1782 1799 1784 1783 1818 1767 
1800 1801 1855 1819 1837 1836 1856 1873 1891 
1785 1892 1874 1803 1909 1910 1945 1839 1928 
1981 1963 1964 1946 1857 1893 1982 2000 1911 
2053 2036 2035 1929 2071 2072 2054 2089 2125 
2107 2143 2124 2142 2161 2160 2179 2178 2196 
2214 2215 2197 2250 2249 2233 2232 2286 2268 
2267 2303 2285 2321 2304 2339 2393 2357 2374 
2738 2758 2759 2739 2567 2566 2565 2564 2568 
2569 2570 2571 2573 2572 2575 2574 2577 2578 
2576 2579 2582 2580 2583 2581 2585 2586 2587 
2584 2588 2590 2591 2589 2594 2592 2595 2593 
2599 2598 2597 2596 2639 2619 2638 2618 1677 
1676 1693 1694 1711 1695 1580 1712 1730 1748 
1600 1713 1620 1731 1766 60 40 1749 20 
1541 1521 80 1802 1820 120 100 1561 160 
140 1581 1 180 1821 1838 21 240 1875 
220 200 280 260 2018 300 161 320 181 
1947 201 340 162 2090 1983 1965 2108 2126 
2001 2144 2019 2180 2162 2037 2055 2073 2216 
2198 2251 2269 2234 2252 2305 2287 2322 2270 
2288 2358 2340 2323 2394 2375 2760 2761 2741 
2740 2762 2765 2764 2763 2767 2769 2766 2768 
2770 2771 2773 2772 2776 2775 2774 2777 2778 
2780 2779 2781 2784 2782 2785 2783 2789 2787 
2786 2788 2793 2792 2791 2790 2796 2797 2795 
2794 980 1100 1120 960 1000 1140 1160 1200 
1001 1040 1180 1220 1061 1041 1002 1240 1260 
1081 1062 1280 1101 1300 1121 1141 1320 1340 
1161 1181 1360 1380 1201 1221 1400 1420 1440 
1241 1261 1281 1500 1460 1480 1540 1321 1301 
1520 1361 1381 1560 1341 1362 1401 1382 1421 
1640 1441 1461 0 1442 1501 1462 1481 1482 
1542 1502 1522 1601 1543 1563 1562 1582 1621 
1622 1602 1641 41 22 1642 61 2 81 
42 121 62 101 102 141 83 82 143 
122 182 142 360 163 221 380 241 400 
420 460 440 261 281 301 2091 321 480 
2109 500 2127 341 520 560 2145 540 2163 
2306 2181 2341 580 2324 2342 2376 2199 2395 
2359 2217 2360 2235 680 2377 2396 700 2271 
2253 2378 840 2307 740 2325 2289 800 2343 
761 860 701 2361 880 721 1020 820 2379 
2397 920 900 1060 821 940 1080 822 861 
842 823 881 882 863 921 862 901 843 
941 883 903 902 922 961 981 962 942 
983 1022 982 1003 1021 1042 1082 1023 1043 
1064 1084 1063 1083 1102 1122 1104 1124 1142 
1103 1123 1162 1143 1163 1182 1144 1164 1184 
1203 1222 1183 1202 1242 1243 1223 1262 1282 
1283 1263 1303 1323 1302 1322 1342 1363 1343 
1383 1403 1422 1402 1443 1444 1423 1463 1484 
1483 1523 1503 1544 1524 1564 1545 1603 1584 
1583 1604 1643 1623 1624 1644 24 23 3 
4 44 63 84 64 43 104 124 123 
103 183 145 144 164 202 222 204 184 
203 224 262 242 223 243 263 282 302 
283 303 322 323 361 342 362 381 343 
382 401 402 421 600 441 422 620 461 
442 481 462 501 482 640 541 522 660 
521 581 542 561 562 720 602 582 621 
601 760 780 642 661 641 622 662 681 
682 702 703 722 762 781 741 742 801 
763 782 783 803 802 841 805 824 804 
825 845 844 865 864 885 904 905 884 
943 923 924 963 944 964 984 985 965 
1025 1024 1005 1004 1065 1044 1045 1085 1105 
1165 1125 1126 1146 1145 1166 1185 1204 1205 
1224 1225 1245 1244 1285 1264 1265 1284 1305 
1304 1325 1324 1364 1344 1365 1345 1405 1404 
1384 1385 1424 1445 1464 1425 1504 1465 1485 
1486 1505 1526 1546 1525 1506 1565 1585 1586 
1566 1625 1606 1645 1626 1605 1646 25 26 
6 5 45 46 65 66 105 86 125 
85 106 165 146 126 166 185 206 205 
186 226 244 245 225 264 265 284 285 
305 324 325 304 363 344 364 383 403 
404 384 443 424 444 423 463 464 483 
484 503 504 523 502 544 543 524 564 
563 584 583 624 603 623 604 663 643 
644 664 684 704 723 683 744 743 724 
765 764 784 785 826 827 807 806 847 
846 867 866 886 887 906 907 925 947 
946 945 926 927 987 986 967 966 1026 
1027 1007 1006 1067 1047 1046 1066 1086 1107 
1106 1087 1127 1147 1167 1206 1187 1186 1207 
1246 1247 1227 1226 1266 1286 1287 1267 1306 
1327 1307 1326 1367 1346 1366 1347 1407 1387 
1406 1386 1447 1426 1427 1446 1467 1487 1466 
1507 1527 1548 1547 1587 1567 1588 1568 1607 
1628 1608 1627 1647 8 7 1648 27 47 
68 48 67 28 108 107 87 88 128 
147 148 127 188 168 187 167 247 207 
208 227 228 246 266 267 287 286 307 
326 306 327 346 365 366 345 385 405 
386 406 425 446 445 426 465 466 485 
505 506 486 546 526 545 525 586 585 
566 565 605 625 626 606 645 666 665 
646 686 685 705 706 707 725 746 727 
745 747 726 766 786 787 767 809 828 
829 808 869 848 849 868 908 888 889 
909 949 948 929 928 988 989 969 968 
1028 1008 1029 1009 1049 1048 1068 1069 1089 
1108 1109 1088 1128 1129 1148 1149 1189 1168 
1188 1169 1209 1248 1249 1228 1229 1208 1288 
1268 1289 1269 1308 1309 1329 1328 1348 1369 
1368 1349 1389 1408 1388 1409 1448 1449 1429 
1428 1488 1469 1468 1489 1508 1529 1549 1509 
1528 1550 1589 1569 1570 1629 1609 1649 9 
29 69 49 30 70 90 89 109 110 
150 129 149 190 169 189 170 210 229 
209 248 249 268 288 269 289 308 328 
309 367 368 348 329 349 347 388 369 
387 407 408 427 428 467 448 468 447 
488 487 508 507 548 547 528 527 567 
588 568 587 608 607 628 627 647 648 
668 667 688 687 708 709 729 748 728 
749 769 768 789 788 830 811 831 810 
850 851 871 870 891 890 910 911 931 
930 950 951 971 990 970 991 1011 1010 
1031 1030 1050 1070 1071 1051 1110 1091 1111 
1090 1131 1130 1151 1150 1171 1170 1190 1191 
1251 1250 1211 1210 1231 1230 1291 1270 1271 
1290 1331 1330 1310 1311 1370 1371 1350 1351 
1391 1411 1390 1410 1451 1430 1431 1450 1470 
1471 1491 1490 1511 1551 1530 1510 1531 1590 
1591 1571 1610 1611 1630 1631 10 11 1651 
1650 51 50 31 111 91 71 131 130 
151 152 191 171 192 172 230 212 211 
231 251 250 270 271 290 311 291 310 
351 350 331 330 389 391 390 371 370 
411 410 409 429 431 430 469 449 470 
450 451 490 509 489 510 529 550 530 
549 590 569 589 570 609 629 611 630 
610 631 649 670 650 669 710 689 711 
690 730 750 751 731 790 770 771 791 
813 812 832 833 853 873 852 872 893 
892 912 913 953 933 952 932 992 993 
972 973 1013 1033 1032 1012 1072 1053 1073 
1052 1112 1113 1093 1092 1173 1133 1152 1153 
1132 1193 1212 1192 1172 1213 1252 1233 1253 
1232 1272 1292 1273 1293 1333 1332 1313 1312 
1373 1372 1353 1352 1413 1393 1412 1392 1432 
1433 1453 1452 1473 1493 1513 1492 1472 1552 
1532 1533 1512 1553 1573 1593 1592 1572 1613 
1632 1633 1612 1652 1653 12 13 52 53 
73 33 32 72 93 113 112 92 153 
132 133 173 194 193 233 214 232 213 
253 252 273 293 272 312 292 333 332 
313 353 373 372 352 413 393 412 392 
433 453 432 452 472 493 473 471 511 
513 491 512 492 533 553 552 551 532 
531 592 573 571 572 593 591 612 632 
633 613 651 653 652 671 672 691 712 
692 713 693 733 732 752 753 773 772 
792 793 834 815 835 814 855 875 854 
874 895 894 915 914 954 935 955 934 
995 975 994 974 1015 1035 1014 1034 1074 
1055 1095 1075 1054 1094 1114 1135 1134 1115 
1154 1155 1175 1174 1195 1194 1214 1215 1234 
1254 1255 1235 1294 1275 1295 1274 1335 1315 
1314 1334 1354 1374 1375 1355 1414 1435 1415 
1394 1395 1434 1475 1474 1454 1455 1514 1495 
1494 1515 1554 1535 1534 1555 1594 1595 1575 
1574 1635 1634 1615 1614 1655 14 35 15 
1654 34 54 55 74 75 115 114 94 
95 135 154 134 155 195 175 174 215 
254 255 235 234 294 295 275 274 315 
335 334 314 355 375 354 374 414 395 
394 415 455 435 454 434 474 475 495 
494 515 535 514 534 574 554 555 575 
615 595 594 614 635 655 634 695 674 
675 673 654 694 714 715 735 734 754 
755 795 775 794 774 837 856 857 836 
877 876 897 896 936 916 937 917 957 
976 977 956 997 1017 996 1016 1056 1057 
1037 1036 1076 1077 1097 1096 1136 1116 1137 
1117 1157 1156 1176 1177 1196 1216 1217 1197 
1256 1257 1237 1236 1276 1296 1297 1277 1317 
1316 1357 1356 1337 1336 1377 1397 1396 1376 
1416 1437 1436 1417 1457 1477 1456 1476 1516 
1517 1496 1497 1556 1536 1537 1557 1576 1577 
1597 1596 1636 1656 1637 1616 1657 1617 37 
16 17 36 76 77 57 56 97 116 
117 96 137 136 157 156 196 216 197 
177 176 217 256 236 237 257 276 296 
297 277 317 336 316 337 357 356 376 
377 397 416 396 417 437 436 456 457 
477 476 497 496 536 537 517 516 557 
577 576 556 597 596 617 616 637 636 
657 656 677 696 697 676 716 737 717 
736 756 757 777 776 797 796 816 817 
838 1059 858 1079 1119 898 878 1099 918 
1139 1159 938 958 1179 978 1199 998 1018 
1239 1219 1038 1259 1058 1279 1078 1319 1299 
1098 1118 1339 1379 1138 1158 1359 1198 1419 
1178 1399 1459 1218 1238 1439 1258 1278 1499 
1479 1318 1539 1519 1298 1338 1579 1358 1378 
1559 1619 1599 1418 1398 1639 1438 1659 19 
1458 1478 39 1498 59 99 1538 1518 79 
1578 119 139 1558 179 159 1618 1638 1598 
1658 18 219 199 239 279 38 259 58 
299 98 78 319 339 118 138 359 178 
379 399 158 439 419 198 238 218 459 
278 258 479 298 499 318 519 358 559 
539 338 579 378 599 398 639 418 619 
438 478 458 679 659 518 498 699 719 
558 759 739 538 598 799 779 578 618 
839 819 638 859 879 658 678 899 698 
919 718 939 959 738 999 778 979 758 
798 1039 818 1019 2401 2399 2400 2398 2404 
2403 2405 2402 2407 2408 2406 2409 2411 2410 
2412 2413 2416 2417 2415 2414 2418 2420 2421 
2419 2425 2427 2426 2422 2424 2423 2429 2428 
2431 2430 2432 2433 2434 2435 2436 2437 2438 
2439 2442 2443 2441 2440 2445 2444 2447 2446 
2448 2451 2450 2449 2453 2452 2454 2455 2458 
2456 2457 2459 2463 2461 2460 2462 2465 2467 
2466 2464 2469 2468 2471 2470 2472 2473 2475 
2474 2478 2477 2480 2481 2479 2476 2482 2483 
2484 2485 2487 2488 2486 2489 2493 2492 2490 
2491 2497 2496 2495 2494 2498 2500 2501 2499 
2504 2502 2505 2503 2509 2508 2507 2506 2511 
2510 2513 2512 2517 2515 2514 2516 2521 2520 
2518 2519 2523 2524 2525 2522 2527 2528 2529 
2526 2530 2531 2532 2533 2534 2535 2536 2537 
2538 2539 2543 2541 2540 2542 2544 2545 2546 
2547 2548 2549 2550 2551 2555 2552 2553 2554 
2558 2556 2557 2559 2560 2561 2562 2563 
FIELD FieldData 7
r 3 2798 float
-0.5375 -0.4875 0 -0.5375 -0.4625 0 -0.5125 -0.4875 0 
-0.5125 -0.4625 0 -0.487805 -0.4875 0 -0.463415 -0.4875 0 
-0.463415 -0.4625 0 -0.487805 -0.4625 0 -0.414634 -0.4625 0 
-0.439024 -0.4875 0 -0.414634 -0.4875 0 -0.439024 -0.4625 0 
-0.390244 -0.4625 0 -0.365854 -0.4625 0 -0.390244 -0.4875 0 
-0.365854 -0.4875 0 -0.317073 -0.4625 0 -0.341463 -0.4875 0 
-0.317073 -0.4875 0 -0.341463 -0.4625 0 -0.268293 -0.4875 0 
-0.268293 -0.4625 0 -0.292683 -0.4625 0 -0.292683 -0.4875 0 
-0.219512 -0.4875 0 -0.219512 -0.4625 0 -0.243902 -0.4625 0 
-0.243902 -0.4875 0 -0.170732 -0.4625 0 -0.195122 -0.4625 0 
-0.170732 -0.4875 0 -0.195122 -0.4875 0 -0.121951 -0.4875 0 
-0.146341 -0.4625 0 -0.146341 -0.4875 0 -0.121951 -0.4625 0 
-0.097561 -0.4875 0 -0.097561 -0.4625 0 -0.0731707 -0.4875 0 
-0.0731707 -0.4625 0 -0.0487805 -0.4625 0 -0.0487805 -0.4875 0 
-0.0243903 -0.4625 0 -1.86265e-08 -0.4875 0 -0.0243903 -0.4875 0 
-1.86265e-08 -0.4625 0 0.0487805 -0.4625 0 0.0243902 -0.4875 0 
0.0243902 -0.4625 0 0.0487805 -0.4875 0 0.0731707 -0.4875 0 
0.097561 -0.4875 0 0.097561 -0.4625 0 0.0731707 -0.4625 0 
0.146341 -0.4625 0 0.146341 -0.4875 0 0.121951 -0.4625 0 
0.121951 -0.4875 0 0.195122 -0.4875 0 0.195122 -0.4625 0 
0.170732 -0.4875 0 0.170732 -0.4625 0 0.219512 -0.4875 0 
0.243902 -0.4625 0 0.219512 -0.4625 0 0.243902 -0.4875 0 
0.292683 -0.4875 0 0.292683 -0.4625 0 0.268293 -0.4625 0 
0.268293 -0.4875 0 0.317073 -0.4875 0 0.341463 -0.4625 0 
0.317073 -0.4625 0 0.341463 -0.4875 0 0.365854 -0.4625 0 
0.365854 -0.4875 0 0.390244 -0.4625 0 0.390244 -0.4875 0 
0.414634 -0.4875 0 0.414634 -0.4625 0 0.439024 -0.4875 0 
0.439024 -0.4625 0 0.463415 -0.4875 0 0.463415 -0.4625 0 
0.487805 -0.4875 0 0.487805 -0.4625 0 0.5125 -0.4625 0 
0.5375 -0.4625 0 0.5375 -0.4875 0 0.5125 -0.4875 0 
-0.5375 -0.4125 0 -0.5375 -0.4375 0 -0.5125 -0.4125 0 
-0.5125 -0.4375 0 -0.488016 -0.412371 0 -0.487867 -0.437492 0 
-0.463742 -0.436958 0 -0.464215 -0.410939 0 -0.416658 -0.43708 0 
-0.441081 -0.410334 0 -0.440219 -0.436746 0 -0.417835 -0.411163 0 
-0.370428 -0.412035 0 -0.394257 -0.411642 0 -0.392776 -0.437258 0 
-0.368687 -0.437402 0 -0.320549 -0.43728 0 -0.322668 -0.411735 0 
-0.346484 -0.412028 0 -0.344524 -0.437407 0 -0.274177 -0.412917 0 
-0.298641 -0.412361 0 -0.296471 -0.437507 0 -0.272036 -0.437682 0 
-0.222647 -0.437842 0 -0.224495 -0.413426 0 -0.249427 -0.413212 0 
-0.247392 -0.437764 0 -0.173091 -0.437985 0 -0.197961 -0.437709 0 
-0.174258 -0.413925 0 -0.199504 -0.413224 0 -0.147962 -0.438022 0 
-0.12317 -0.413902 0 -0.122877 -0.437979 0 -0.148697 -0.414115 0 
-0.098019 -0.437835 0 -0.0726608 -0.41393 0 -0.0731411 -0.437985 0 
-0.0979318 -0.413527 0 -0.0471764 -0.414058 0 -0.0218081 -0.413584 0 
-0.0231544 -0.437874 0 -0.0480882 -0.438039 0 0.00153988 -0.437803 0 
0.0262369 -0.437892 0 0.0281699 -0.413534 0 0.00323177 -0.413333 0 
0.078067 -0.413346 0 0.0509817 -0.43782 0 0.0756528 -0.437815 0 
0.0531641 -0.413384 0 0.127768 -0.413313 0 0.149606 -0.437815 0 
0.10294 -0.413283 0 0.100302 -0.437783 0 0.124937 -0.437799 0 
0.177405 -0.413368 0 0.174291 -0.437822 0 0.19896 -0.43783 0 
0.152582 -0.413368 0 0.202157 -0.413314 0 0.226797 -0.413224 0 
0.22359 -0.437821 0 0.248156 -0.4378 0 0.297108 -0.437801 0 
0.275784 -0.413044 0 0.272645 -0.437777 0 0.251331 -0.413123 0 
0.324553 -0.413016 0 0.321592 -0.437824 0 0.300208 -0.413088 0 
0.348619 -0.412538 0 0.345934 -0.437684 0 0.396008 -0.412074 0 
0.372427 -0.412382 0 0.370081 -0.437645 0 0.394151 -0.437656 0 
0.441213 -0.410193 0 0.41886 -0.409956 0 0.417522 -0.436799 0 
0.440239 -0.436765 0 0.488398 -0.413258 0 0.488397 -0.43806 0 
0.463884 -0.437936 0 0.464348 -0.412958 0 0.5125 -0.4375 0 
0.5375 -0.4125 0 0.5375 -0.4375 0 0.5125 -0.4125 0 
-0.5125 -0.3625 0 -0.5375 -0.3875 0 -0.5125 -0.3875 0 
-0.5375 -0.3625 0 -0.464482 -0.357687 0 -0.488051 -0.387025 0 
-0.464441 -0.384486 0 -0.488012 -0.361744 0 -0.441868 -0.356755 0 
-0.441592 -0.383627 0 -0.418826 -0.358797 0 -0.418468 -0.385012 0 
-0.395489 -0.359687 0 -0.371378 -0.386449 0 -0.371898 -0.360784 0 
-0.395041 -0.385741 0 -0.348118 -0.36085 0 -0.300051 -0.362321 0 
-0.347562 -0.38647 0 -0.32379 -0.386125 0 -0.324284 -0.360592 0 
-0.250316 -0.38876 0 -0.275134 -0.388189 0 -0.250523 -0.364411 0 
-0.299684 -0.387256 0 -0.275403 -0.36354 0 -0.225271 -0.365255 0 
-0.225233 -0.389219 0 -0.199687 -0.365163 0 -0.174416 -0.390189 0 
-0.173872 -0.366751 0 -0.199958 -0.389039 0 -0.147696 -0.367313 0 
-0.122647 -0.390142 0 -0.121594 -0.366588 0 -0.14851 -0.390572 0 
-0.097114 -0.389504 0 -0.0715485 -0.390238 0 -0.0958278 -0.36571 0 
-0.0699734 -0.366876 0 -0.0175966 -0.365908 0 -0.0437372 -0.367149 0 
-0.0199094 -0.389628 0 -0.0456825 -0.390439 0 0.00789709 -0.364827 0 
0.00540283 -0.389052 0 0.0304778 -0.389361 0 0.0330287 -0.365319 0 
0.0807524 -0.389045 0 0.0836161 -0.364854 0 0.0556688 -0.389122 0 
0.0583972 -0.365012 0 0.130822 -0.388922 0 0.105815 -0.38896 0 
0.133837 -0.364629 0 0.108733 -0.364788 0 0.18047 -0.388892 0 
0.158722 -0.364468 0 0.155694 -0.388949 0 0.183366 -0.364278 0 
0.207888 -0.364003 0 0.22969 -0.388526 0 0.232342 -0.363727 0 
0.205144 -0.388725 0 0.25414 -0.388345 0 0.281044 -0.363301 0 
0.278518 -0.388231 0 0.256733 -0.36349 0 0.305159 -0.363091 0 
0.328874 -0.362217 0 0.302821 -0.388226 0 0.326892 -0.387852 0 
0.350551 -0.38696 0 0.374012 -0.386722 0 0.39843 -0.359417 0 
0.375369 -0.360828 0 0.397263 -0.385936 0 0.352151 -0.360928 0 
0.441951 -0.383138 0 0.419886 -0.382807 0 0.420838 -0.355409 0 
0.442653 -0.355524 0 0.464598 -0.387414 0 0.464817 -0.361404 0 
0.488409 -0.363326 0 0.488428 -0.388336 0 0.5125 -0.3625 0 
0.5125 -0.3875 0 0.5375 -0.3875 0 0.5375 -0.3625 0 
-0.5375 -0.3125 0 -0.5375 -0.3375 0 -0.5125 -0.3125 0 
-0.5125 -0.3375 0 -0.487921 -0.336615 0 -0.464477 -0.330533 0 
-0.464636 -0.303052 0 -0.487889 -0.311624 0 -0.442056 -0.32976 0 
-0.419388 -0.306134 0 -0.419092 -0.332531 0 -0.44225 -0.302742 0 
-0.37222 -0.335116 0 -0.396168 -0.307439 0 -0.37252 -0.30949 0 
-0.395806 -0.333564 0 -0.300234 -0.31267 0 -0.300115 -0.337495 0 
-0.348417 -0.335278 0 -0.324571 -0.30995 0 -0.324448 -0.335208 0 
-0.348638 -0.309763 0 -0.250541 -0.340186 0 -0.275471 -0.338927 0 
-0.250735 -0.316072 0 -0.275688 -0.314251 0 -0.225057 -0.341563 0 
-0.225065 -0.318134 0 -0.17315 -0.343549 0 -0.198961 -0.31814 0 
-0.1992 -0.341556 0 -0.172776 -0.320457 0 -0.146393 -0.321266 0 
-0.120596 -0.343181 0 -0.146816 -0.344261 0 -0.120127 -0.319886 0 
-0.0946451 -0.342149 0 -0.0939566 -0.318807 0 -0.0684775 -0.343835 0 
-0.0675506 -0.321047 0 -0.0405962 -0.321585 0 -0.0418868 -0.344196 0 
-0.0153801 -0.342401 0 -0.0136465 -0.319193 0 0.0354053 -0.341393 0 
0.0123548 -0.316321 0 0.0102711 -0.340584 0 0.0374025 -0.317479 0 