# vtk DataFile Version 4.0
vtk output
ASCII
DATASET POLYDATA
FIELD FieldData 4
domain 1 3 string
domain_min:-20|-15
domain_max:20|15
cell_size:0.05

variables 1 2 string
dt:0.000372678
T:1.63001

constants 1 10 string
xsize:2
ysize:1
csize:0.05
dx:0.0238095
h:0.025
rho0:1000
mass:0.566894
g:1|0
c:13.4164
CFL:0.2

functions 1 8 string
time:T=(T+dt)
continuity:rho_dot=((-(rho*sph_D00(v,mass,rho,Wp52220)))+(((0.1*c)*h)*sph_L00(rho,mass,rho,Wp52220)))
irho:rho=(rho+int1((rho_dot,dt))
EOS:p=(((c^2)*(rho-rho0))+10000)
euler:a=if((gid,(0*v),(((-((1/rho)*sph_G11(p,mass,rho,Wp52220)))+(0.01*sph_L00(v,mass,rho,Wp52220)))+g))
vel:v=(v+int1((a,dt))
pos:r=(r+int1((v,dt))
new_dt:dt=(CFL*min((sqrt(((h/fmax(magnitude((a)))),(h/c)))

POINTS 2798 float
-0.5125 -0.4875 0 -0.5125 -0.4625 0 -0.5375 -0.4875 0 
-0.5375 -0.4625 0 -0.487805 -0.4875 0 -0.487805 -0.4625 0 
-0.463415 -0.4875 0 -0.463415 -0.4625 0 -0.439024 -0.4875 0 
-0.414634 -0.4875 0 -0.414634 -0.4625 0 -0.439024 -0.4625 0 
-0.365854 -0.4875 0 -0.390244 -0.4625 0 -0.390244 -0.4875 0 
-0.365854 -0.4625 0 -0.341463 -0.4625 0 -0.317073 -0.4625 0 
-0.317073 -0.4875 0 -0.341463 -0.4875 0 -0.292683 -0.4625 0 
-0.268293 -0.4875 0 -0.292683 -0.4875 0 -0.268293 -0.4625 0 
-0.243902 -0.4875 0 -0.219512 -0.4625 0 -0.243902 -0.4625 0 
-0.219512 -0.4875 0 -0.195122 -0.4875 0 -0.195122 -0.4625 0 
-0.170732 -0.4875 0 -0.170732 -0.4625 0 -0.146341 -0.4625 0 
-0.121951 -0.4875 0 -0.121951 -0.4625 0 -0.146341 -0.4875 0 
-0.097561 -0.4875 0 -0.0731707 -0.4875 0 -0.0731707 -0.4625 0 
-0.097561 -0.4625 0 -1.86265e-08 -0.4875 0 -1.86265e-08 -0.4625 0 
-0.0487805 -0.4875 0 -0.0243903 -0.4875 0 -0.0243903 -0.4625 0 
-0.0487805 -0.4625 0 0.0487805 -0.4625 0 0.0243902 -0.4875 0 
0.0243902 -0.4625 0 0.0487805 -0.4875 0 0.0731707 -0.4875 0 
0.097561 -0.4625 0 0.097561 -0.4875 0 0.0731707 -0.4625 0 
0.146341 -0.4875 0 0.121951 -0.4875 0 0.121951 -0.4625 0 
0.146341 -0.4625 0 0.170732 -0.4625 0 0.170732 -0.4875 0 
0.195122 -0.4875 0 0.195122 -0.4625 0 0.219512 -0.4875 0 
0.243902 -0.4875 0 0.219512 -0.4625 0 0.243902 -0.4625 0 
0.268293 -0.4625 0 0.292683 -0.4625 0 0.292683 -0.4875 0 
0.268293 -0.4875 0 0.341463 -0.4875 0 0.341463 -0.4625 0 
0.317073 -0.4625 0 0.317073 -0.4875 0 0.365854 -0.4875 0 
0.390244 -0.4875 0 0.390244 -0.4625 0 0.365854 -0.4625 0 
0.439024 -0.4625 0 0.414634 -0.4625 0 0.439024 -0.4875 0 
0.414634 -0.4875 0 0.463415 -0.4875 0 0.463415 -0.4625 0 
0.487805 -0.4875 0 0.487805 -0.4625 0 0.5125 -0.4875 0 
0.5125 -0.4625 0 0.5375 -0.4625 0 0.5375 -0.4875 0 
-0.5125 -0.4375 0 -0.5375 -0.4375 0 -0.5375 -0.4125 0 
-0.5125 -0.4125 0 -0.489222 -0.408172 0 -0.46575 -0.437292 0 
-0.489071 -0.435851 0 -0.466528 -0.411558 0 -0.44302 -0.411698 0 
-0.417506 -0.437006 0 -0.419151 -0.411609 0 -0.441441 -0.437318 0 
-0.370059 -0.436525 0 -0.394524 -0.411977 0 -0.393611 -0.437233 0 
-0.37075 -0.410238 0 -0.300257 -0.409324 0 -0.300806 -0.436881 0 
-0.322596 -0.408387 0 -0.346866 -0.413561 0 -0.322874 -0.435504 0 
-0.346017 -0.438242 0 -0.277857 -0.407454 0 -0.257434 -0.4366 0 
-0.279073 -0.435183 0 -0.255102 -0.409653 0 -0.208092 -0.410306 0 
-0.235204 -0.436365 0 -0.213227 -0.435812 0 -0.232025 -0.409285 0 
-0.190771 -0.438479 0 -0.157628 -0.408628 0 -0.171338 -0.430306 0 
-0.151132 -0.438706 0 -0.186523 -0.40773 0 -0.135055 -0.41118 0 
-0.104744 -0.437675 0 -0.1281 -0.436157 0 -0.111027 -0.411567 0 
-0.0894324 -0.405034 0 -0.08372 -0.433438 0 -0.0622355 -0.437511 0 
-0.0670883 -0.409741 0 -0.0439486 -0.411728 0 -0.0176693 -0.433962 0 
-0.0389457 -0.437224 0 -0.0209932 -0.406236 0 0.00384023 -0.437342 0 
0.00171876 -0.409944 0 0.0477854 -0.437152 0 0.0490007 -0.410309 0 
0.0251298 -0.409005 0 0.0258336 -0.435059 0 0.0736627 -0.409911 0 
0.0921088 -0.438555 0 0.0699199 -0.434976 0 0.095803 -0.408161 0 
0.132311 -0.439194 0 0.111566 -0.4303 0 0.126242 -0.409883 0 
0.148894 -0.412145 0 0.156074 -0.436393 0 0.178377 -0.436359 0 
0.193469 -0.409654 0 0.171922 -0.408114 0 0.217568 -0.411412 0 
0.247577 -0.437131 0 0.223656 -0.437582 0 0.240585 -0.412535 0 
0.20072 -0.436208 0 0.271227 -0.436927 0 0.293138 -0.412015 0 
0.294558 -0.436965 0 0.266862 -0.412559 0 0.316125 -0.412358 0 
0.318812 -0.438791 0 0.346136 -0.408138 0 0.339262 -0.43097 0 
0.360542 -0.440279 0 0.389411 -0.437985 0 0.371686 -0.419512 0 
0.415244 -0.439001 0 0.430674 -0.419853 0 0.444576 -0.440378 0 
0.402916 -0.41573 0 0.479367 -0.441688 0 0.460217 -0.403109 0 
0.490122 -0.422749 0 0.460791 -0.424565 0 0.5375 -0.4125 0 
0.5375 -0.4375 0 0.5125 -0.4125 0 0.5125 -0.4375 0 
-0.5375 -0.3875 0 -0.5125 -0.3625 0 -0.5125 -0.3875 0 
-0.5375 -0.3625 0 -0.489146 -0.380441 0 -0.466963 -0.385118 0 
-0.48883 -0.353221 0 -0.46556 -0.358793 0 -0.44204 -0.360034 0 
-0.416309 -0.363428 0 -0.444002 -0.385645 0 -0.420211 -0.38645 0 
-0.385515 -0.368033 0 -0.367032 -0.386721 0 -0.354162 -0.365245 0 
-0.395432 -0.387836 0 -0.335743 -0.351092 0 -0.322953 -0.37602 0 
-0.31117 -0.352914 0 -0.302235 -0.383842 0 -0.341178 -0.388874 0 
-0.279789 -0.378813 0 -0.258145 -0.383285 0 -0.288829 -0.355411 0 
-0.250257 -0.35977 0 -0.202537 -0.352308 0 -0.22347 -0.359019 0 
-0.233666 -0.38352 0 -0.210152 -0.384205 0 -0.168709 -0.388244 0 
-0.154002 -0.368369 0 -0.18969 -0.377094 0 -0.176143 -0.356104 0 
-0.113069 -0.3858 0 -0.137607 -0.385928 0 -0.101179 -0.355939 0 
-0.124774 -0.361803 0 -0.0639204 -0.358718 0 -0.0680578 -0.383058 0 
-0.0902037 -0.377148 0 -0.0441154 -0.386378 0 -0.0403271 -0.360624 0 
-0.0205153 -0.378887 0 -0.0146377 -0.35199 0 0.00174464 -0.383405 0 
0.0306107 -0.3579 0 0.00716182 -0.357462 0 0.0253239 -0.383439 0 
0.0490789 -0.384754 0 0.0544065 -0.359509 0 0.0934482 -0.376883 0 
0.0768293 -0.3554 0 0.0724814 -0.384654 0 0.139743 -0.385017 0 
0.112981 -0.389729 0 0.120828 -0.365102 0 0.100761 -0.350262 0 
0.14445 -0.358301 0 0.167312 -0.357148 0 0.198096 -0.357759 0 
0.185482 -0.379546 0 0.162719 -0.3839 0 0.231612 -0.385073 0 
0.207822 -0.386679 0 0.245284 -0.361601 0 0.220636 -0.360339 0 
0.286687 -0.356654 0 0.255338 -0.390317 0 0.269616 -0.370026 0 
0.284621 -0.390638 0 0.315917 -0.35882 0 0.339824 -0.373657 0 
0.324889 -0.391879 0 0.304364 -0.379094 0 0.341729 -0.350344 0 
0.388415 -0.37381 0 0.381774 -0.399082 0 0.367122 -0.364657 0 
0.35949 -0.388823 0 0.4273 -0.373629 0 0.40621 -0.359155 0 
0.407145 -0.391191 0 0.434229 -0.351496 0 0.431628 -0.398857 0 
0.483521 -0.379631 0 0.452289 -0.381616 0 0.462846 -0.362636 0 
0.486181 -0.399691 0 0.490107 -0.357201 0 0.5375 -0.3625 0 
0.5125 -0.3625 0 0.5375 -0.3875 0 0.5125 -0.3875 0 
-0.5375 -0.3125 0 -0.5125 -0.3375 0 -0.5125 -0.3125 0 
-0.5375 -0.3375 0 -0.467009 -0.304328 0 -0.468394 -0.332107 0 
-0.48949 -0.324348 0 -0.419987 -0.312599 0 -0.445636 -0.333169 0 
-0.444574 -0.307403 0 -0.423113 -0.338159 0 -0.397614 -0.346558 0 
-0.373401 -0.324027 0 -0.370053 -0.347368 0 -0.39807 -0.321743 0 
-0.344861 -0.304597 0 -0.348424 -0.329541 0 -0.323068 -0.326443 0 
-0.320557 -0.301634 0 -0.278528 -0.322014 0 -0.299729 -0.327913 0 
-0.256093 -0.321307 0 -0.268318 -0.347065 0 -0.235965 -0.308124 0 
-0.237136 -0.337827 0 -0.206856 -0.302345 0 -0.216408 -0.326127 0 
-0.158015 -0.312931 0 -0.183091 -0.308236 0 -0.165561 -0.33519 0 
-0.191902 -0.330679 0 -0.106697 -0.304048 0 -0.14296 -0.345752 0 
-0.13424 -0.321403 0 -0.115507 -0.33451 0 -0.0575679 -0.331264 0 
-0.0809334 -0.343784 0 -0.0725062 -0.311766 0 -0.0938305 -0.322486 0 
-0.0344941 -0.336472 0 -0.00355354 -0.327797 0 -0.0454422 -0.307035 0 
-0.0231929 -0.314079 0 0.0361066 -0.308368 0 0.0187765 -0.331891 0 
0.0430959 -0.33364 0 0.0135669 -0.304042 0 0.0908727 -0.327241 0 
0.0666309 -0.33153 0 0.060021 -0.306466 0 0.082386 -0.30293 0 
0.123544 -0.337925 0 0.113888 -0.31686 0 0.138092 -0.308669 0 
0.147665 -0.333161 0 0.187192 -0.307653 0 0.166868 -0.321324 0 
0.182898 -0.339633 0 0.220743 -0.307516 0 0.225259 -0.337449 0 
0.242941 -0.322798 0 0.203866 -0.326763 0 0.282832 -0.301245 0 
0.259452 -0.305621 0 0.25815 -0.34278 0 0.275545 -0.328893 0 
0.326067 -0.307942 0 0.299834 -0.33745 0 0.324598 -0.332551 0 
0.301327 -0.312473 0 0.34952 -0.301481 0 0.376205 -0.316621 0 
0.35087 -0.325203 0 0.392988 -0.34076 0 0.369098 -0.342238 0 
0.401488 -0.316211 0 0.431933 -0.313595 0 0.420155 -0.333077 0 
0.455747 -0.318548 0 0.480955 -0.336867 0 0.4546 -0.340343 0 
0.488489 -0.317596 0 0.5375 -0.3125 0 0.5125 -0.3375 0 
0.5125 -0.3125 0 0.5375 -0.3375 0 -0.5375 -0.2875 0 
-0.5125 -0.2625 0 -0.5375 -0.2625 0 -0.5125 -0.2875 0 
-0.451095 -0.276242 0 -0.489909 -0.295955 0 -0.490319 -0.263278 0 
-0.472815 -0.27671 0 -0.424546 -0.257114 0 -0.409079 -0.285464 0 
-0.430968 -0.285436 0 -0.402013 -0.259748 0 -0.381607 -0.270549 0 
-0.359046 -0.273816 0 -0.366984 -0.298871 0 -0.390237 -0.297434 0 
-0.312104 -0.275619 0 -0.328669 -0.25265 0 -0.336446 -0.278595 0 
-0.254543 -0.290247 0 -0.27515 -0.294612 0 -0.268599 -0.262349 0 
-0.288288 -0.270574 0 -0.297562 -0.299335 0 -0.21889 -0.261515 0 
-0.24475 -0.267094 0 -0.225766 -0.286075 0 -0.19873 -0.276862 0 
-0.152908 -0.288965 0 -0.17677 -0.284249 0 -0.171707 -0.25894 0 
-0.193868 -0.250194 0 -0.129442 -0.297336 0 -0.10621 -0.257947 0 
-0.125198 -0.272924 0 -0.148531 -0.264263 0 -0.0990085 -0.282282 0 
-0.0513449 -0.284266 0 -0.0524171 -0.260852 0 -0.075916 -0.289442 0 
-0.0783068 -0.263934 0 -0.0072214 -0.295595 0 -0.0266677 -0.282423 0 
-0.00119526 -0.268802 0 -0.0260671 -0.258098 0 0.0419239 -0.283465 0 
0.0190141 -0.277216 0 0.0398554 -0.257854 0 0.0877086 -0.273614 0 
0.0629882 -0.253341 0 0.0654013 -0.279087 0 0.126432 -0.286241 0 
0.145953 -0.274308 0 0.1041 -0.294146 0 0.130761 -0.252904 0 
0.110695 -0.264973 0 0.163631 -0.259523 0 0.159572 -0.296494 0 
0.195454 -0.263528 0 0.178001 -0.281186 0 0.203463 -0.29024 0 
0.220658 -0.273472 0 0.239155 -0.29187 0 0.23164 -0.251584 0 
0.27126 -0.278629 0 0.250121 -0.270556 0 0.28125 -0.25387 0 
0.296167 -0.276878 0 0.330472 -0.268662 0 0.308464 -0.254246 0 
0.316525 -0.287177 0 0.377601 -0.294234 0 0.351652 -0.280461 0 
[...]
POINT_DATA 2798
SCALARS id float
LOOKUP_TABLE default
2620 2621 2600 2601 2640 2641 2642 2643 2644 
2646 2647 2645 2650 2649 2648 2651 2653 2655 
2654 2652 2657 2658 2656 2659 2660 2663 2661 
2662 2664 2665 2666 2667 2669 2670 2671 2668 
2672 2674 2675 2673 2680 2681 2676 2678 2679 
2677 2685 2682 2683 2684 2686 2689 2688 2687 
2692 2690 2691 2693 2695 2694 2696 2697 2698 
2700 2699 2701 2703 2705 2704 2702 2708 2709 
2707 2706 2710 2712 2713 2711 2717 2715 2716 
2714 2718 2719 2720 2721 2722 2723 2743 2742 
2622 2602 2603 2623 1661 1678 1660 1697 1715 
1714 1750 1696 1786 1768 1732 1823 1913 1858 
1877 1822 1840 1804 1931 1894 1876 1949 1985 
1912 1930 1967 1948 2057 1966 1984 2003 2093 
2038 2020 2111 2129 2056 2074 2147 2165 2110 
2092 2184 2128 2183 2164 2219 2201 2146 2237 
2200 2182 2255 2236 2218 2273 2291 2254 2272 
2329 2310 2328 2308 2309 2330 2290 2327 2347 
2326 2331 2350 2346 2349 2348 2345 2344 2365 
2362 2363 2380 2364 2381 2367 2384 2382 2745 
2744 2725 2724 2604 2625 2624 2605 1662 1679 
1698 1716 1769 1806 1733 1787 1824 1841 1842 
1805 1860 1895 1896 1914 1859 1932 1950 1933 
2005 2040 2022 1986 2004 2002 2039 2021 2058 
2112 2075 2131 2094 2167 2148 2130 2166 2185 
2203 2222 2202 2239 2221 2220 2238 2257 2275 
2276 2256 2292 2274 2293 2294 2295 2296 2314 
2312 2311 2332 2313 2300 2315 2336 2316 2317 
2333 2335 2353 2352 2334 2318 2369 2366 2354 
2351 2370 2372 2368 2371 2383 2387 2386 2389 
2385 2388 2747 2727 2746 2726 2607 2626 2627 
2606 1752 1734 1680 1807 1751 1770 1788 1825 
1862 1843 1844 1879 1861 1878 1897 1951 1915 
1987 1968 2024 2023 2060 2041 2096 2078 2077 
2059 2132 2076 2095 2113 2186 2149 2168 2150 
2204 2223 2205 2206 2241 2240 2258 2224 2277 
2259 2242 2260 2278 2279 2280 2297 2264 2281 
2298 2265 2282 2247 2299 21 2125 2283 2230 
1875 2266 2248 2142 1481 1461 2195 2337 2284 
340 2090 2267 2231 2391 2390 2355 2749 2728 
2729 2748 2608 2629 2609 2628 1771 1717 1663 
1735 1808 1826 1789 1863 1899 1898 1880 1881 
1953 1935 1916 1969 1952 1988 1970 1934 2043 
2006 2042 2061 2097 2079 2080 2062 2114 2116 
2115 2098 2133 2187 2188 2169 2151 2207 2190 
2191 2189 2225 2208 2174 2244 2226 2243 2262 
2263 2261 2228 2245 2211 2246 2054 2194 2229 
2072 2212 1893 2018 1929 1522 1441 1521 120 
1362 60 100 20 1460 1161 0 1122 1101 
1620 2373 2213 1341 2301 280 2751 2731 2730 
2750 2631 2610 2611 2630 1699 1718 1681 1753 
1736 1772 1827 1845 1790 1901 1882 1900 1864 
1917 1971 1954 1918 1972 1936 1989 2008 2007 
1990 2044 2026 2045 2025 2028 2063 2081 2046 
2117 2099 2064 2082 2134 2170 2135 2152 2172 
2173 2155 2139 2140 2156 2123 2157 2227 2192 
2209 2175 2193 2158 2053 2210 2177 2070 2036 
2159 2124 2176 1821 1581 1838 2035 1911 180 
140 1946 1561 1541 1301 40 1361 1141 1201 
1281 1420 320 1400 1183 1221 1321 2733 2732 
2752 2753 2613 2633 2612 2632 1664 1682 1719 
1665 1700 1809 1754 1902 1865 1884 1883 1846 
1919 1937 1955 1938 1973 1956 1974 2009 2027 
1991 1975 2010 1977 1992 1993 2011 1959 1905 
2029 2047 2065 2012 2083 2030 2171 2101 2136 
2100 2120 2137 2154 2153 2138 2089 2122 2119 
2121 2141 2105 2052 2087 2071 2033 2050 2106 
2069 2000 1839 2088 2051 2017 2034 1964 1857 
2107 1731 1982 1981 1 1803 1820 1600 1928 
1910 1181 1580 1540 1261 1520 1440 1121 1081 
2755 2734 2754 2735 2635 2634 2614 2615 1720 
1666 1683 1701 1737 1773 1828 1791 1847 1810 
1848 1885 1866 1829 1903 1868 1920 1867 1940 
1939 1957 1921 1924 1923 1976 1887 1834 1852 
1817 1958 1871 1781 1711 1941 1835 1994 1960 
1798 1995 1925 2013 1906 2048 1944 2066 2118 
2084 2014 2049 2103 2104 2102 2085 2067 2015 
2086 2068 1999 1785 2032 80 1908 1890 1874 
1856 2016 1980 1693 1998 1926 1837 1892 160 
1963 1749 1784 1802 1560 1241 1713 1767 1766 
1040 1001 1729 2737 2756 2736 2757 2617 2636 
2616 2637 1684 1667 1702 1774 1738 1792 1755 
1830 1757 1756 1811 1849 1793 1831 1812 1813 
1794 1922 1904 1869 1775 1870 1832 1850 1886 
1816 1851 1815 1795 1780 1779 1689 1727 1673 
1744 1745 1797 2361 1691 1674 1708 1746 1978 
1100 1799 1943 1140 1996 2031 1927 1709 1961 
1997 1695 1945 1962 1889 1979 820 1710 1180 
1676 462 2325 762 1120 1909 1783 1942 1080 
900 1853 542 1819 1891 1818 1712 1220 601 
1300 1873 2759 2739 2738 2758 2564 2565 2567 
2566 2569 2568 2570 2571 2572 2573 2575 2574 
2578 2577 2576 2579 2580 2581 2583 2582 2584 
2586 2585 2587 2588 2591 2589 2590 2593 2595 
2594 2592 2596 2598 2597 2599 2639 2619 2638 
2618 2143 1703 1669 1668 1685 1686 1721 1704 
2250 1722 2214 1758 2374 1670 1741 1739 2251 
1776 1740 2234 1523 2357 1760 1777 1283 1742 
1705 1723 1687 1759 2375 1778 1833 2359 1796 
2376 2323 1726 1724 1762 1814 2198 1671 1725 
1888 41 1707 2377 640 2396 2343 2235 2394 
2270 1763 800 1743 2253 2306 2287 1728 461 
840 1672 2145 1020 2019 2271 2307 2199 341 
1675 2288 2341 1060 680 1801 2397 761 2289 
2378 1480 1855 2760 2740 2741 2761 2765 2763 
2762 2764 2767 2766 2769 2768 2770 2772 2771 
2773 2774 2775 2776 2777 2778 2781 2779 2780 
2784 2785 2783 2782 2786 2788 2787 2789 2792 
2790 2791 2793 2796 2794 2795 2797 1340 1102 
941 1677 701 981 1240 1062 423 682 1202 
402 2285 861 641 1021 2178 1401 980 801 
2319 901 1262 1601 742 1000 1222 783 2249 
2160 1061 220 843 2338 1142 260 1282 2392 
2320 962 240 883 903 2356 1182 2232 1381 
2302 1421 1543 1322 2215 2126 1184 1402 2303 
1243 1947 1342 1502 923 1023 1621 1162 1003 
1382 1123 2216 2305 1303 2252 201 1223 2358 
983 1582 181 2179 1542 2161 1185 161 2339 
1761 1688 1105 1483 2163 2196 2395 1422 2233 
2393 2360 2304 2321 2180 1983 200 2055 2197 
1602 1564 163 2109 1706 162 2037 660 42 
2342 421 143 81 1690 2217 1500 460 520 
2324 223 1730 2091 261 780 1836 482 1765 
1748 561 720 1872 1380 281 881 1907 1764 
1200 1800 862 1041 1747 263 1854 1782 1692 
1242 802 1260 541 1320 363 921 1694 822 
740 501 124 105 262 920 442 381 721 
264 361 282 85 242 722 401 224 323 
621 222 283 463 880 760 383 661 403 
344 343 681 404 940 364 304 703 305 
284 960 522 781 602 325 782 582 841 
702 741 583 961 563 683 1082 804 942 
662 1002 1043 723 803 922 642 1203 823 
763 744 1063 1640 663 1022 625 863 1204 
982 1103 1163 1044 1083 764 902 864 1042 
943 963 844 825 806 904 786 884 1024 
766 1144 300 1143 1004 1124 1064 984 964 
1045 1302 1544 1263 925 1145 2108 1641 1106 
1104 1264 1562 1086 1501 1482 1363 1383 1344 
141 2162 1463 360 1244 61 1443 2268 1563 
1503 1366 500 1404 2340 1424 480 83 22 
3 182 2269 860 2322 2127 420 2379 104 
400 1643 2286 63 1280 1160 1360 441 560 
481 700 43 101 362 1605 221 540 620 
422 4 241 123 1585 321 302 600 2181 
521 44 62 144 1505 26 25 1624 301 
6 580 5 45 1567 24 1547 1645 183 
27 184 203 165 244 204 66 243 382 
443 342 322 245 324 205 303 225 147 
186 185 266 206 285 365 345 502 483 
581 286 562 424 405 366 503 444 385 
622 386 821 543 643 544 664 623 624 
743 684 603 565 824 645 882 644 584 
842 704 604 665 605 546 566 585 526 
724 705 626 785 685 784 725 765 845 
745 805 924 746 787 885 905 865 866 
807 886 944 846 867 1084 985 887 1025 
906 1164 945 1065 965 1442 1085 1066 1224 
1225 1047 1046 1087 1125 1165 1205 1343 1423 
1126 1186 1403 1462 1323 1385 1384 1364 1304 
1365 1227 1345 1207 23 1524 2073 2001 1644 
121 84 1642 1965 440 82 1604 380 103 
1623 122 142 102 1545 2 1485 1584 1603 
1565 1525 1486 1427 1466 1445 1546 1446 1625 
1467 1487 1506 1566 64 1527 1507 1586 1526 
1646 1606 1626 65 46 1607 1647 86 1627 
7 202 47 166 67 164 146 87 125 
106 145 126 167 88 127 226 265 187 
207 208 246 384 227 209 346 228 306 
523 287 247 267 307 326 406 464 327 
484 524 425 504 564 445 485 407 446 
465 426 505 525 466 427 487 486 506 
547 545 586 567 507 646 627 686 666 
606 607 667 647 687 706 747 726 707 
826 727 708 788 688 767 668 827 728 
847 848 768 868 849 869 888 907 966 
986 889 946 926 1026 1005 967 947 1006 
1067 1007 987 948 1107 1265 1027 1088 1226 
1284 1245 1146 1206 1285 1128 1166 1325 2144 
1622 1246 1324 1187 1266 1346 1286 1305 1267 
1464 1228 1583 1406 1405 1306 1444 1387 1386 
1367 1425 1484 1465 1504 1426 1407 1329 1348 
1388 1349 1408 1447 1428 1409 1448 1429 1468 
1449 1508 1469 1488 1489 1548 1587 1509 1529 
1528 1568 1588 1569 1549 1628 1589 1608 1609 
1629 1649 8 1648 28 29 48 9 49 
69 68 30 107 128 168 148 108 150 
149 188 189 129 170 190 229 169 248 
249 210 289 269 308 288 268 290 329 
270 347 328 309 349 310 348 367 368 
387 389 388 409 369 408 448 428 447 
467 449 468 469 488 548 508 527 549 
528 587 568 569 608 589 588 628 629 
648 609 669 649 670 709 710 748 689 
749 808 729 789 828 829 769 809 870 
830 850 890 927 909 908 910 929 968 
928 988 1008 1068 949 1108 1028 1048 1089 
1127 1069 1049 1147 1110 1109 1090 1208 1148 
1167 1129 1189 1168 1247 1209 1188 1248 1287 
1210 1229 1326 1268 1307 1288 1328 1368 1347 
1327 1331 1311 1310 1330 1351 1369 1371 1370 
1350 1389 1411 1410 1390 1430 1451 1431 1450 
1470 1491 1471 1490 1531 1511 1510 1530 1551 
1570 1571 1550 1611 1590 1591 1630 1610 1631 
10 1650 1651 11 51 50 31 89 70 
90 109 131 111 110 130 171 151 152 
132 230 172 191 211 232 250 231 212 
251 271 311 291 330 331 292 350 370 
371 390 391 410 411 429 431 450 430 
470 491 471 489 509 490 530 510 529 
511 551 571 570 550 590 610 591 611 
630 631 650 651 711 691 671 690 751 
750 731 730 770 791 771 790 811 831 
851 810 892 891 871 872 852 931 930 
911 912 950 951 970 969 989 971 991 
990 1009 1011 1010 1029 1030 1050 1070 1091 
1071 1051 1092 1112 1130 1149 1111 1151 1150 
1132 1131 1170 1169 1230 1211 1190 1250 1269 
1231 1249 1309 1308 1270 1290 1289 1291 1313 
1332 1333 1312 1292 1372 1373 1353 1352 1391 
1392 1412 1413 1452 1433 1432 1453 1493 1472 
1473 1492 1512 1513 1533 1532 1553 1552 1572 
1573 1633 1613 1592 1612 1593 1652 1632 1653 
13 53 52 33 32 12 93 72 73 
91 71 134 92 113 112 154 174 153 
133 173 192 193 194 233 234 213 214 
272 253 294 273 252 312 332 293 313 
352 351 372 373 412 392 393 413 451 
453 452 433 432 492 493 473 472 532 
513 512 531 552 572 573 553 593 592 
613 612 632 652 653 633 673 713 692 
693 672 712 752 733 753 732 793 773 
772 792 832 813 812 833 853 873 874 
914 894 913 893 932 953 952 933 972 
993 973 992 1013 1012 1033 1031 1032 1072 
1053 1052 1073 1093 1113 1114 1094 1134 1153 
1152 1133 1172 1192 1171 1191 1212 1232 1233 
1252 1272 1271 1251 1293 1314 1335 1334 1355 
1374 1354 1395 1375 1393 1394 1415 1414 1454 
1435 1434 1455 1475 1474 1515 1495 1494 1534 
1555 1514 1535 1554 1575 1574 1595 1594 1635 
1615 1614 1634 1654 15 1655 14 35 75 
54 55 34 94 95 115 74 114 135 
176 156 175 155 196 215 296 276 235 
195 254 255 275 315 314 274 295 334 
354 375 333 394 395 353 374 434 435 
414 415 454 475 455 495 474 494 534 
533 514 515 555 554 575 574 594 614 
615 595 655 654 635 634 675 674 695 
694 715 714 754 735 755 734 775 794 
774 795 834 835 815 814 916 875 855 
854 935 955 915 895 934 975 954 995 
1015 994 1035 974 1034 1075 1055 1014 1095 
1074 1136 1054 1175 1154 1135 1115 1155 1174 
1214 1173 1195 1235 1234 1213 1255 1193 1274 
1275 1254 1253 1315 1295 1294 1273 1396 1376 
1517 1537 1436 1557 1577 1416 1456 1617 1597 
1476 1496 1657 1637 1516 37 1556 1536 17 
1596 57 1576 77 1636 97 1616 117 137 
16 157 1656 177 197 56 36 76 237 
217 96 297 136 277 116 317 216 337 
257 397 256 357 236 377 417 437 336 
316 356 457 376 335 355 497 477 517 
537 396 416 577 557 456 436 597 617 
637 496 476 516 657 536 677 697 717 
556 535 757 737 576 596 777 616 797 
636 817 837 656 676 857 696 716 877 
917 736 897 756 937 977 776 816 957 
796 997 856 1017 836 936 1057 876 1037 
896 1077 1097 976 956 1137 1016 996 1117 
1036 1177 1056 1197 1076 1096 1237 1217 1116 
1277 1157 1257 1156 1297 1317 1176 1196 1216 
1337 1377 1236 1194 1215 1357 1276 1417 1256 
1397 1457 1316 1437 1296 1477 1356 1497 1336 
358 1399 338 1379 1439 1419 398 378 1479 
438 418 1459 1519 458 1499 478 1539 518 
498 1559 538 1579 1599 1619 558 578 1639 
598 618 19 1659 658 39 59 638 79 
698 99 678 738 119 139 718 778 159 
179 758 818 219 199 798 858 259 878 
279 838 239 299 918 898 319 359 938 
339 958 978 419 379 998 399 439 459 
1038 1018 1058 499 479 1078 1098 1138 1118 
519 539 599 1158 579 1178 559 619 639 
1218 1198 679 1258 1238 659 1278 1298 1318 
719 699 1338 739 1358 759 1378 799 1398 
779 819 1418 1438 839 1478 859 879 1458 
1498 919 899 1518 939 959 1538 1558 979 
1578 1598 999 1638 1618 1019 1039 1658 1059 
18 1079 1099 58 38 1119 1139 98 1159 
78 118 1199 1179 138 158 178 1219 218 
1279 1259 1239 198 278 1299 238 258 1319 
1339 298 318 1359 2399 2398 2400 2401 2405 
2404 2402 2403 2407 2406 2408 2409 2412 2411 
2413 2410 2415 2417 2414 2416 2421 2418 2420 
2419 2422 2423 2427 2425 2424 2426 2429 2430 
2431 2428 2433 2435 2434 2432 2436 2438 2437 
2439 2442 2440 2443 2441 2447 2446 2445 2444 
2451 2449 2450 2448 2453 2452 2454 2455 2457 
2459 2456 2458 2463 2461 2460 2462 2465 2464 
2466 2467 2469 2471 2468 2470 2475 2474 2473 
2472 2477 2476 2479 2481 2480 2478 2482 2483 
2484 2485 2488 2487 2486 2489 2493 2492 2490 
2491 2497 2496 2495 2494 2501 2500 2499 2498 
2502 2505 2503 2504 2509 2508 2507 2506 2511 
2510 2513 2512 2517 2515 2514 2516 2521 2519 
2520 2518 2525 2522 2523 2524 2527 2528 2529 
2526 2530 2531 2532 2533 2534 2535 2536 2537 
2538 2539 2543 2541 2540 2542 2544 2545 2546 
2547 2548 2549 2550 2551 2552 2554 2553 2555 
2558 2556 2557 2559 2560 2561 2562 2563 
FIELD FieldData 7
r 3 2798 float
-0.5125 -0.4875 0 -0.5125 -0.4625 0 -0.5375 -0.4875 0 
-0.5375 -0.4625 0 -0.487805 -0.4875 0 -0.487805 -0.4625 0 
-0.463415 -0.4875 0 -0.463415 -0.4625 0 -0.439024 -0.4875 0 
-0.414634 -0.4875 0 -0.414634 -0.4625 0 -0.439024 -0.4625 0 
-0.365854 -0.4875 0 -0.390244 -0.4625 0 -0.390244 -0.4875 0 
-0.365854 -0.4625 0 -0.341463 -0.4625 0 -0.317073 -0.4625 0 
-0.317073 -0.4875 0 -0.341463 -0.4875 0 -0.292683 -0.4625 0 
-0.268293 -0.4875 0 -0.292683 -0.4875 0 -0.268293 -0.4625 0 
-0.243902 -0.4875 0 -0.219512 -0.4625 0 -0.243902 -0.4625 0 
-0.219512 -0.4875 0 -0.195122 -0.4875 0 -0.195122 -0.4625 0 
-0.170732 -0.4875 0 -0.170732 -0.4625 0 -0.146341 -0.4625 0 
-0.121951 -0.4875 0 -0.121951 -0.4625 0 -0.146341 -0.4875 0 
-0.097561 -0.4875 0 -0.0731707 -0.4875 0 -0.0731707 -0.4625 0 
-0.097561 -0.4625 0 -1.86265e-08 -0.4875 0 -1.86265e-08 -0.4625 0 
-0.0487805 -0.4875 0 -0.0243903 -0.4875 0 -0.0243903 -0.4625 0 
-0.0487805 -0.4625 0 0.0487805 -0.4625 0 0.0243902 -0.4875 0 
0.0243902 -0.4625 0 0.0487805 -0.4875 0 0.0731707 -0.4875 0 
0.097561 -0.4625 0 0.097561 -0.4875 0 0.0731707 -0.4625 0 
0.146341 -0.4875 0 0.121951 -0.4875 0 0.121951 -0.4625 0 
0.146341 -0.4625 0 0.170732 -0.4625 0 0.170732 -0.4875 0 
0.195122 -0.4875 0 0.195122 -0.4625 0 0.219512 -0.4875 0 
0.243902 -0.4875 0 0.219512 -0.4625 0 0.243902 -0.4625 0 
0.268293 -0.4625 0 0.292683 -0.4625 0 0.292683 -0.4875 0 
0.268293 -0.4875 0 0.341463 -0.4875 0 0.341463 -0.4625 0 
0.317073 -0.4625 0 0.317073 -0.4875 0 0.365854 -0.4875 0 
0.390244 -0.4875 0 0.390244 -0.4625 0 0.365854 -0.4625 0 
0.439024 -0.4625 0 0.414634 -0.4625 0 0.439024 -0.4875 0 
0.414634 -0.4875 0 0.463415 -0.4875 0 0.463415 -0.4625 0 
0.487805 -0.4875 0 0.487805 -0.4625 0 0.5125 -0.4875 0 
0.5125 -0.4625 0 0.5375 -0.4625 0 0.5375 -0.4875 0 
-0.5125 -0.4375 0 -0.5375 -0.4375 0 -0.5375 -0.4125 0 
-0.5125 -0.4125 0 -0.489222 -0.408172 0 -0.46575 -0.437292 0 
-0.489071 -0.435851 0 -0.466528 -0.411558 0 -0.44302 -0.411698 0 
-0.417506 -0.437006 0 -0.419151 -0.411609 0 -0.441441 -0.437318 0 
-0.370059 -0.436525 0 -0.394524 -0.411977 0 -0.393611 -0.437233 0 
-0.37075 -0.410238 0 -0.300257 -0.409324 0 -0.300806 -0.436881 0 
-0.322596 -0.408387 0 -0.346866 -0.413561 0 -0.322874 -0.435504 0 
-0.346017 -0.438242 0 -0.277857 -0.407454 0 -0.257434 -0.4366 0 
-0.279073 -0.435183 0 -0.255102 -0.409653 0 -0.208092 -0.410306 0 
-0.235204 -0.436365 0 -0.213227 -0.435812 0 -0.232025 -0.409285 0 
-0.190771 -0.438479 0 -0.157628 -0.408628 0 -0.171338 -0.430306 0 
-0.151132 -0.438706 0 -0.186523 -0.40773 0 -0.135055 -0.41118 0 
-0.104744 -0.437675 0 -0.1281 -0.436157 0 -0.111027 -0.411567 0 
-0.0894324 -0.405034 0 -0.08372 -0.433438 0 -0.0622355 -0.437511 0 
-0.0670883 -0.409741 0 -0.0439486 -0.411728 0 -0.0176693 -0.433962 0 
-0.0389457 -0.437224 0 -0.0209932 -0.406236 0 0.00384023 -0.437342 0 
0.00171876 -0.409944 0 0.0477854 -0.437152 0 0.0490007 -0.410309 0 
0.0251298 -0.409005 0 0.0258336 -0.435059 0 0.0736627 -0.409911 0 
0.0921088 -0.438555 0 0.0699199 -0.434976 0 0.095803 -0.408161 0 
0.132311 -0.439194 0 0.111566 -0.4303 0 0.126242 -0.409883 0 
0.148894 -0.412145 0 0.156074 -0.436393 0 0.178377 -0.436359 0 
0.193469 -0.409654 0 0.171922 -0.408114 0 0.217568 -0.411412 0 
0.247577 -0.437131 0 0.223656 -0.437582 0 0.240585 -0.412535 0 
0.20072 -0.436208 0 0.271227 -0.436927 0 0.293138 -0.412015 0 
0.294558 -0.436965 0 0.266862 -0.412559 0 0.316125 -0.412358 0 
0.318812 -0.438791 0 0.346136 -0.408138 0 0.339262 -0.43097 0 
0.360542 -0.440279 0 0.389411 -0.437985 0 0.371686 -0.419512 0 
0.415244 -0.439001 0 0.430674 -0.419853 0 0.444576 -0.440378 0 
0.402916 -0.41573 0 0.479367 -0.441688 0 0.460217 -0.403109 0 
0.490122 -0.422749 0 0.460791 -0.424565 0 0.5375 -0.4125 0 
0.5375 -0.4375 0 0.5125 -0.4125 0 0.5125 -0.4375 0 
-0.5375 -0.3875 0 -0.5125 -0.3625 0 -0.5125 -0.3875 0 
-0.5375 -0.3625 0 -0.489146 -0.380441 0 -0.466963 -0.385118 0 
-0.48883 -0.353221 0 -0.46556 -0.358793 0 -0.44204 -0.360034 0 
-0.416309 -0.363428 0 -0.444002 -0.385645 0 -0.420211 -0.38645 0 
-0.385515 -0.368033 0 -0.367032 -0.386721 0 -0.354162 -0.365245 0 
-0.395432 -0.387836 0 -0.335743 -0.351092 0 -0.322953 -0.37602 0 
-0.31117 -0.352914 0 -0.302235 -0.383842 0 -0.341178 -0.388874 0 
-0.279789 -0.378813 0 -0.258145 -0.383285 0 -0.288829 -0.355411 0 
-0.250257 -0.35977 0 -0.202537 -0.352308 0 -0.22347 -0.359019 0 
-0.233666 -0.38352 0 -0.210152 -0.384205 0 -0.168709 -0.388244 0 
-0.154002 -0.368369 0 -0.18969 -0.377094 0 -0.176143 -0.356104 0 
-0.113069 -0.3858 0 -0.137607 -0.385928 0 -0.101179 -0.355939 0 
-0.124774 -0.361803 0 -0.0639204 -0.358718 0 -0.0680578 -0.383058 0 
-0.0902037 -0.377148 0 -0.0441154 -0.386378 0 -0.0403271 -0.360624 0 
-0.0205153 -0.378887 0 -0.0146377 -0.35199 0 0.00174464 -0.383405 0 
0.0306107 -0.3579 0 0.00716182 -0.357462 0 0.0253239 -0.383439 0 
0.0490789 -0.384754 0 0.0544065 -0.359509 0 0.0934482 -0.376883 0 
0.0768293 -0.3554 0 0.0724814 -0.384654 0 0.139743 -0.385017 0 
0.112981 -0.389729 0 0.120828 -0.365102 0 0.100761 -0.350262 0 
0.14445 -0.358301 0 0.167312 -0.357148 0 0.198096 -0.357759 0 
0.185482 -0.379546 0 0.162719 -0.3839 0 0.231612 -0.385073 0 
0.207822 -0.386679 0 0.245284 -0.361601 0 0.220636 -0.360339 0 
0.286687 -0.356654 0 0.255338 -0.390317 0 0.269616 -0.370026 0 
0.284621 -0.390638 0 0.315917 -0.35882 0 0.339824 -0.373657 0 
0.324889 -0.391879 0 0.304364 -0.379094 0 0.341729 -0.350344 0 
0.388415 -0.37381 0 0.381774 -0.399082 0 0.367122 -0.364657 0 
0.35949 -0.388823 0 0.4273 -0.373629 0 0.40621 -0.359155 0 
0.407145 -0.391191 0 0.434229 -0.351496 0 0.431628 -0.398857 0 
0.483521 -0.379631 0 0.452289 -0.381616 0 0.462846 -0.362636 0 
0.486181 -0.399691 0 0.490107 -0.357201 0 0.5375 -0.3625 0 
0.5125 -0.3625 0 0.5375 -0.3875 0 0.5125 -0.3875 0 
-0.5375 -0.3125 0 -0.5125 -0.3375 0 -0.5125 -0.3125 0 
-0.5375 -0.3375 0 -0.467009 -0.304328 0 -0.468394 -0.332107 0 
-0.48949 -0.324348 0 -0.419987 -0.312599 0 -0.445636 -0.333169 0 
-0.444574 -0.307403 0 -0.423113 -0.338159 0 -0.397614 -0.346558 0 
-0.373401 -0.324027 0 -0.370053 -0.347368 0 -0.39807 -0.321743 0 
-0.344861 -0.304597 0 -0.348424 -0.329541 0 -0.323068 -0.326443 0 
-0.320557 -0.301634 0 -0.278528 -0.322014 0 -0.299729 -0.327913 0 
-0.256093 -0.321307 0 -0.268318 -0.347065 0 -0.235965 -0.308124 0 
-0.237136 -0.337827 0 -0.206856 -0.302345 0 -0.216408 -0.326127 0 
-0.158015 -0.312931 0 -0.183091 -0.308236 0 -0.165561 -0.33519 0 
-0.191902 -0.330679 0 -0.106697 -0.304048 0 -0.14296 -0.345752 0 
-0.13424 -0.321403 0 -0.115507 -0.33451 0 -0.0575679 -0.331264 0 
-0.0809334 -0.343784 0 -0.0725062 -0.311766 0 -0.0938305 -0.322486 0 
-0.0344941 -0.336472 0 -0.00355354 -0.327797 0 -0.0454422 -0.307035 0 