# vtk DataFile Version 4.0
vtk output
ASCII
DATASET POLYDATA
FIELD FieldData 4
domain 1 3 string
domain_min:-20|-15
domain_max:20|15
cell_size:0.05

variables 1 2 string
dt:0.000372678
T:0.986077

constants 1 10 string
xsize:2
ysize:1
csize:0.05
dx:0.0238095
h:0.025
rho0:1000
mass:0.566894
g:1|0
c:13.4164
CFL:0.2

functions 1 8 string
time:T=(T+dt)
continuity:rho_dot=((-(rho*sph_D00(v,mass,rho,Wp52220)))+(((0.1*c)*h)*sph_L00(rho,mass,rho,Wp52220)))
irho:rho=(rho+int1((rho_dot,dt))
EOS:p=(((c^2)*(rho-rho0))+10000)
euler:a=if((gid,(0*v),(((-((1/rho)*sph_G11(p,mass,rho,Wp52220)))+(0.01*sph_L00(v,mass,rho,Wp52220)))+g))
vel:v=(v+int1((a,dt))
pos:r=(r+int1((v,dt))
new_dt:dt=(CFL*min((sqrt(((h/fmax(magnitude((a)))),(h/c)))

POINTS 2798 float
-0.5125 -0.4875 0 -0.5375 -0.4625 0 -0.5375 -0.4875 0 
-0.5125 -0.4625 0 -0.487805 -0.4875 0 -0.463415 -0.4875 0 
-0.463415 -0.4625 0 -0.487805 -0.4625 0 -0.439024 -0.4625 0 
-0.439024 -0.4875 0 -0.414634 -0.4875 0 -0.414634 -0.4625 0 
-0.365854 -0.4875 0 -0.390244 -0.4625 0 -0.365854 -0.4625 0 
-0.390244 -0.4875 0 -0.341463 -0.4625 0 -0.317073 -0.4875 0 
-0.317073 -0.4625 0 -0.341463 -0.4875 0 -0.292683 -0.4875 0 
-0.268293 -0.4625 0 -0.292683 -0.4625 0 -0.268293 -0.4875 0 
-0.219512 -0.4625 0 -0.243902 -0.4625 0 -0.219512 -0.4875 0 
-0.243902 -0.4875 0 -0.195122 -0.4625 0 -0.170732 -0.4875 0 
-0.195122 -0.4875 0 -0.170732 -0.4625 0 -0.121951 -0.4625 0 
-0.121951 -0.4875 0 -0.146341 -0.4625 0 -0.146341 -0.4875 0 
-0.097561 -0.4875 0 -0.097561 -0.4625 0 -0.0731707 -0.4875 0 
-0.0731707 -0.4625 0 -0.0243903 -0.4875 0 -1.86265e-08 -0.4875 0 
-0.0243903 -0.4625 0 -0.0487805 -0.4625 0 -1.86265e-08 -0.4625 0 
-0.0487805 -0.4875 0 0.0243902 -0.4625 0 0.0487805 -0.4875 0 
0.0243902 -0.4875 0 0.0487805 -0.4625 0 0.0731707 -0.4875 0 
0.097561 -0.4625 0 0.097561 -0.4875 0 0.0731707 -0.4625 0 
0.121951 -0.4625 0 0.146341 -0.4875 0 0.146341 -0.4625 0 
0.121951 -0.4875 0 0.170732 -0.4875 0 0.195122 -0.4625 0 
0.170732 -0.4625 0 0.195122 -0.4875 0 0.243902 -0.4875 0 
0.219512 -0.4625 0 0.243902 -0.4625 0 0.219512 -0.4875 0 
0.268293 -0.4875 0 0.268293 -0.4625 0 0.292683 -0.4875 0 
0.292683 -0.4625 0 0.317073 -0.4625 0 0.341463 -0.4875 0 
0.341463 -0.4625 0 0.317073 -0.4875 0 0.390244 -0.4625 0 
0.390244 -0.4875 0 0.365854 -0.4625 0 0.365854 -0.4875 0 
0.414634 -0.4625 0 0.439024 -0.4625 0 0.414634 -0.4875 0 
0.439024 -0.4875 0 0.487805 -0.4875 0 0.487805 -0.4625 0 
0.463415 -0.4875 0 0.463415 -0.4625 0 0.5375 -0.4875 0 
0.5125 -0.4875 0 0.5125 -0.4625 0 0.5375 -0.4625 0 
-0.5375 -0.4375 0 -0.5125 -0.4125 0 -0.5375 -0.4125 0 
-0.5125 -0.4375 0 -0.467852 -0.403576 0 -0.46627 -0.434633 0 
-0.488344 -0.437129 0 -0.488571 -0.411141 0 -0.421045 -0.413972 0 
-0.442671 -0.438473 0 -0.417464 -0.436814 0 -0.401555 -0.402733 0 
-0.446979 -0.413592 0 -0.36595 -0.437957 0 -0.358914 -0.410791 0 
-0.393645 -0.438254 0 -0.38376 -0.417987 0 -0.33564 -0.411708 0 
-0.311006 -0.412788 0 -0.318484 -0.437456 0 -0.342453 -0.436753 0 
-0.270477 -0.436846 0 -0.26314 -0.410696 0 -0.28676 -0.411595 0 
-0.294109 -0.4372 0 -0.204925 -0.436112 0 -0.226148 -0.434447 0 
-0.2475 -0.436303 0 -0.219405 -0.406532 0 -0.24127 -0.407294 0 
-0.153875 -0.408115 0 -0.175938 -0.409198 0 -0.183103 -0.436012 0 
-0.160941 -0.436608 0 -0.198028 -0.408027 0 -0.118201 -0.436482 0 
-0.139538 -0.434799 0 -0.110658 -0.410621 0 -0.132467 -0.406139 0 
-0.0715918 -0.437156 0 -0.063907 -0.411231 0 -0.0950667 -0.437278 0 
-0.0874111 -0.411482 0 -0.0482304 -0.437125 0 -0.0407206 -0.41101 0 
-0.00064939 -0.437881 0 -0.0248538 -0.437272 0 -0.017087 -0.412349 0 
0.0345186 -0.41529 0 0.00820723 -0.414684 0 0.0248109 -0.438291 0 
0.0604856 -0.413937 0 0.0504614 -0.438037 0 0.0752691 -0.437738 0 
0.0853172 -0.41301 0 0.0998246 -0.438008 0 0.110028 -0.41481 0 
0.140567 -0.421702 0 0.125613 -0.438975 0 0.156655 -0.439666 0 
0.199769 -0.416985 0 0.171378 -0.417315 0 0.183902 -0.438589 0 
0.155593 -0.40041 0 0.226718 -0.418759 0 0.240139 -0.439483 0 
0.211186 -0.43951 0 0.25642 -0.420257 0 0.270068 -0.439707 0 
0.298928 -0.439227 0 0.28619 -0.419236 0 0.317879 -0.419156 0 
0.303263 -0.400282 0 0.334324 -0.401412 0 0.327091 -0.439134 0 
0.380479 -0.438781 0 0.351231 -0.418087 0 0.353598 -0.439139 0 
0.382132 -0.417524 0 0.399034 -0.400925 0 0.413924 -0.418703 0 
0.407385 -0.439615 0 0.435468 -0.438962 0 0.438193 -0.414087 0 
0.462555 -0.413617 0 0.460735 -0.438176 0 0.48736 -0.439647 0 
0.486722 -0.416923 0 0.5375 -0.4125 0 0.5125 -0.4375 0 
0.5375 -0.4375 0 0.5125 -0.4125 0 -0.5375 -0.3875 0 
-0.5125 -0.3625 0 -0.5125 -0.3875 0 -0.5375 -0.3625 0 
-0.453297 -0.383101 0 -0.489318 -0.383856 0 -0.49091 -0.351935 0 
-0.47229 -0.368715 0 -0.440103 -0.360485 0 -0.417755 -0.370608 0 
-0.430341 -0.39105 0 -0.39623 -0.379803 0 -0.359793 -0.372708 0 
-0.37323 -0.391752 0 -0.381386 -0.359596 0 -0.318166 -0.363253 0 
-0.340484 -0.386741 0 -0.34013 -0.357082 0 -0.316225 -0.387888 0 
-0.291678 -0.386694 0 -0.270858 -0.358077 0 -0.294143 -0.361398 0 
-0.268095 -0.384501 0 -0.245991 -0.379993 0 -0.223787 -0.379006 0 
-0.201761 -0.379355 0 -0.225994 -0.352009 0 -0.203888 -0.351323 0 
-0.248734 -0.352885 0 -0.158709 -0.354245 0 -0.157318 -0.380971 0 
-0.179824 -0.381899 0 -0.18161 -0.354641 0 -0.114548 -0.355553 0 
-0.113391 -0.383084 0 -0.135374 -0.377535 0 -0.0685338 -0.35988 0 
-0.091954 -0.359591 0 -0.0903742 -0.385718 0 -0.0666575 -0.385442 0 
-0.0213117 -0.360424 0 -0.0194979 -0.38666 0 -0.0430489 -0.384981 0 
-0.0447997 -0.359327 0 0.0289478 -0.391626 0 0.024607 -0.36603 0 
0.00172131 -0.364279 0 0.00444516 -0.390411 0 0.0476964 -0.365293 0 
0.0534304 -0.390502 0 0.0779887 -0.388334 0 0.0952081 -0.362182 0 
0.071138 -0.363951 0 0.121152 -0.374301 0 0.128314 -0.399431 0 
0.14604 -0.377302 0 0.141831 -0.352518 0 0.101628 -0.388653 0 
0.17297 -0.381759 0 0.166302 -0.356706 0 0.190215 -0.396676 0 
0.189899 -0.361145 0 0.242506 -0.37626 0 0.207581 -0.377304 0 
0.22087 -0.395829 0 0.226371 -0.360366 0 0.247324 -0.398643 0 
0.274213 -0.398423 0 0.270412 -0.376256 0 0.291921 -0.357397 0 
0.298099 -0.378479 0 0.260069 -0.355586 0 0.322817 -0.357845 0 
0.324684 -0.379861 0 0.349892 -0.377931 0 0.380422 -0.381826 0 
0.360514 -0.358596 0 0.387334 -0.360061 0 0.364893 -0.398529 0 
0.408145 -0.378432 0 0.422414 -0.359315 0 0.443148 -0.372398 0 
0.428198 -0.392694 0 0.478593 -0.375559 0 0.489633 -0.355928 0 
0.45832 -0.391068 0 0.461046 -0.356814 0 0.489695 -0.393705 0 
0.5125 -0.3875 0 0.5375 -0.3875 0 0.5125 -0.3625 0 
0.5375 -0.3625 0 -0.5375 -0.3375 0 -0.5375 -0.3125 0 
-0.5125 -0.3375 0 -0.5125 -0.3125 0 -0.458778 -0.346348 0 
-0.459309 -0.313423 0 -0.47872 -0.331957 0 -0.490642 -0.312431 0 
-0.42097 -0.308934 0 -0.42277 -0.340286 0 -0.401827 -0.347967 0 
-0.441082 -0.326862 0 -0.401602 -0.319423 0 -0.361209 -0.343228 0 
-0.379765 -0.300634 0 -0.38072 -0.329542 0 -0.359667 -0.31212 0 
-0.304473 -0.311151 0 -0.341268 -0.327111 0 -0.320369 -0.33616 0 
-0.327126 -0.305281 0 -0.28226 -0.305177 0 -0.297216 -0.336181 0 
-0.252857 -0.326192 0 -0.274656 -0.331253 0 -0.208094 -0.322949 0 
-0.23002 -0.325384 0 -0.170921 -0.30263 0 -0.163118 -0.328461 0 
-0.186314 -0.327133 0 -0.119798 -0.326343 0 -0.141806 -0.321402 0 
-0.136565 -0.349512 0 -0.106033 -0.302057 0 -0.0980245 -0.331869 0 
-0.0524811 -0.333488 0 -0.0841989 -0.306442 0 -0.0613241 -0.307627 0 
-0.0755833 -0.333901 0 -0.0296725 -0.333348 0 -0.0148499 -0.308543 0 
-0.0069624 -0.335781 0 -0.0381674 -0.306545 0 0.0367416 -0.33917 0 
0.0146189 -0.338395 0 0.00784545 -0.309719 0 0.0301877 -0.312544 0 
0.0534469 -0.311643 0 0.0590349 -0.338031 0 0.0765761 -0.311992 0 
0.0821553 -0.3381 0 0.0965674 -0.301739 0 0.116955 -0.349232 0 
0.120201 -0.313236 0 0.103287 -0.32978 0 0.13778 -0.328833 0 
0.179187 -0.30624 0 0.154176 -0.307858 0 0.164159 -0.331689 0 
0.187494 -0.332748 0 0.22302 -0.324117 0 0.239684 -0.306074 0 
0.202742 -0.310801 0 0.241602 -0.340022 0 0.208478 -0.34397 0 
0.259213 -0.322302 0 0.292194 -0.31788 0 0.270211 -0.301613 0 
0.277805 -0.337797 0 0.347828 -0.32313 0 0.308323 -0.338255 0 
0.341309 -0.344564 0 0.322166 -0.320443 0 0.399354 -0.322086 0 
0.373142 -0.314453 0 0.373645 -0.337273 0 0.400891 -0.300062 0 
0.433987 -0.301856 0 0.4365 -0.340569 0 0.403912 -0.343753 0 
0.425442 -0.321481 0 0.457765 -0.312332 0 0.4864 -0.332822 0 
0.460669 -0.333916 0 0.486502 -0.310736 0 0.5375 -0.3375 0 
0.5375 -0.3125 0 0.5125 -0.3125 0 0.5125 -0.3375 0 
-0.5125 -0.2625 0 -0.5375 -0.2625 0 -0.5375 -0.2875 0 
-0.5125 -0.2875 0 -0.453976 -0.276291 0 -0.466215 -0.257497 0 
-0.488288 -0.253929 0 -0.4727 -0.293564 0 -0.489483 -0.279976 0 
-0.40714 -0.252633 0 -0.432967 -0.25985 0 -0.419165 -0.278466 0 
-0.439742 -0.29493 0 -0.388282 -0.266334 0 -0.399618 -0.28963 0 
-0.366858 -0.278103 0 -0.352599 -0.258103 0 -0.310477 -0.256277 0 
-0.345966 -0.290523 0 -0.330568 -0.271897 0 -0.309516 -0.284619 0 
-0.287771 -0.278611 0 -0.260263 -0.299954 0 -0.289327 -0.250932 0 
-0.265431 -0.273972 0 -0.215091 -0.295619 0 -0.219214 -0.269221 0 
-0.237359 -0.299008 0 -0.242108 -0.272695 0 -0.197123 -0.26833 0 
-0.153467 -0.26794 0 -0.175415 -0.27486 0 -0.193095 -0.297497 0 
-0.149885 -0.294548 0 -0.130833 -0.268204 0 -0.127402 -0.29614 0 
-0.108649 -0.272977 0 -0.0626013 -0.256395 0 -0.0635668 -0.281734 0 
-0.0857557 -0.251965 0 -0.0867615 -0.278863 0 -0.0383788 -0.254588 0 
-0.0150004 -0.257756 0 -0.0397695 -0.280574 0 -0.0157279 -0.282747 0 
0.00774653 -0.282961 0 0.0309701 -0.286373 0 0.0314001 -0.260306 0 
0.00922849 -0.256394 0 0.0544378 -0.260877 0 0.0950707 -0.266888 0 
0.0744452 -0.252096 0 0.077506 -0.282921 0 0.055097 -0.28645 0 
0.112648 -0.283767 0 0.13591 -0.293645 0 0.129564 -0.264476 0 
0.1969 -0.283388 0 0.151527 -0.272436 0 0.166083 -0.250097 0 
0.169875 -0.283964 0 0.186877 -0.261969 0 0.223255 -0.268598 0 
0.247016 -0.261227 0 0.220579 -0.291538 0 0.208321 -0.251295 0 
0.250378 -0.28425 0 0.271895 -0.257636 0 0.278474 -0.279497 0 
0.299642 -0.296559 0 0.32846 -0.271377 0 0.30368 -0.271312 0 
[...]
POINT_DATA 2798
SCALARS id float
LOOKUP_TABLE default
2620 2601 2600 2621 2640 2642 2643 2641 2645 
2644 2646 2647 2650 2649 2651 2648 2653 2654 
2655 2652 2656 2659 2657 2658 2663 2661 2662 
2660 2665 2666 2664 2667 2671 2670 2669 2668 
2672 2673 2674 2675 2678 2680 2679 2677 2681 
2676 2683 2684 2682 2685 2686 2689 2688 2687 
2691 2692 2693 2690 2694 2697 2695 2696 2700 
2699 2701 2698 2702 2703 2704 2705 2707 2708 
2709 2706 2713 2712 2711 2710 2715 2717 2714 
2716 2720 2721 2718 2719 2742 2722 2723 2743 
2602 2623 2603 2622 1679 1678 1660 1661 1715 
1696 1714 1733 1697 1768 1787 1732 1750 1805 
1823 1804 1786 1840 1859 1841 1822 1894 1876 
1858 1895 1877 1949 1931 1912 1930 1913 1966 
1948 1985 1967 2002 2021 1984 2003 2020 2039 
2056 2038 2057 2093 2075 2074 2111 2092 2110 
2129 2128 2147 2165 2146 2164 2201 2183 2182 
2184 2219 2218 2200 2237 2236 2254 2255 2273 
2274 2292 2272 2308 2291 2290 2309 2328 2327 
2326 2344 2345 2363 2362 2380 2381 2745 2724 
2744 2725 2604 2625 2624 2605 1698 1662 1663 
1680 1717 1734 1716 1751 1788 1769 1770 1825 
1806 1807 1824 1842 1861 1843 1860 1878 1896 
1914 1897 1915 1879 1951 1950 1932 1933 1987 
1986 1968 2023 2005 2004 2022 2059 2058 2040 
2041 2094 2095 2077 2076 2113 2112 2130 2149 
2131 2167 2166 2185 2186 2148 2203 2204 2202 
2222 2239 2221 2220 2240 2238 2256 2257 2276 
2275 2258 2294 2293 2311 2329 2312 2330 2310 
2347 2348 2365 2346 2383 2384 2364 2366 2382 
2726 2746 2727 2747 2606 2607 2626 2627 1699 
1700 1681 1664 1736 1735 1752 1718 1753 1789 
1772 1771 1790 1845 1808 1826 1827 1863 1844 
1880 1862 1916 1898 1953 1952 1934 1988 1970 
1969 2007 2006 2042 2025 2043 2024 2060 2079 
2078 2061 2114 2096 2097 2115 2133 2132 2151 
2150 2170 2168 2188 2169 2187 2190 2189 2205 
2206 2224 2225 2207 2241 2223 2242 2260 2243 
2259 2296 2277 2295 2278 2332 2314 2313 2333 
2351 2349 2331 2350 2368 2385 2367 2386 2748 
2749 2729 2728 2629 2609 2608 2628 1701 1683 
1666 1682 1665 1755 1720 1737 1719 1773 1754 
1791 1810 1847 1809 1828 1846 1864 1881 1865 
1882 1917 1918 1899 1900 1936 1972 1954 1935 
1971 1990 1989 2008 2045 2044 2027 2026 2063 
2081 2062 2080 2098 2116 2117 2099 2135 2153 
2136 2152 2134 2171 2172 2154 2191 2155 2139 
2173 2156 2174 2209 2208 2140 2226 2227 2244 
2261 2280 2262 2279 2297 2316 2298 2299 2315 
2352 2334 2317 2335 2369 2388 2370 2387 2730 
2750 2751 2731 2611 2610 2631 2630 1684 1703 
1668 1667 1738 1756 1721 1702 1792 1811 1774 
1793 1848 1830 1829 1866 1883 1884 1919 1901 
1920 1902 1956 1937 1955 1938 1973 1974 2010 
2009 1992 1991 2028 2029 2046 2082 2065 2064 
2047 2118 2100 2083 2101 2104 2103 2120 2119 
2138 2122 2121 2137 2105 2123 2071 2052 2157 
2141 2089 2192 2210 2158 2245 2175 2228 2263 
2246 2193 2211 2281 2265 2282 2229 2264 2283 
2336 2318 2300 2371 2354 2353 2389 2732 2733 
2752 2753 2612 2613 2633 2632 1669 1685 1704 
1758 1757 1722 1739 1740 1812 1795 1776 1794 
1775 1850 1831 1813 1832 1849 1868 1869 1904 
1885 1867 1922 1921 1940 1903 1976 1939 1957 
1975 1993 1995 1977 1994 2030 2011 2013 2012 
2014 2048 2066 2031 2049 2084 2067 2102 2032 
2086 2085 2068 2050 2087 2069 2033 2070 2106 
2051 2088 1839 2036 2000 2053 2035 2159 2107 
2124 2054 2177 2176 2072 2247 2125 2194 2212 
2284 2230 2266 2372 2390 2391 2337 2734 2755 
2735 2754 2634 2615 2635 2614 1723 1670 1686 
1705 1741 1760 1742 1759 1778 1777 1796 1814 
1833 1851 1815 1816 1886 1834 1870 1852 1924 
1887 1923 1871 1941 1958 1905 1959 1925 1943 
1909 1960 1944 1996 1961 1927 1978 1856 1997 
1874 1945 1979 2015 1785 1962 1910 1998 1980 
1999 160 1963 2017 2016 1600 1982 2034 1820 
1981 1964 1803 1857 1928 1 180 1838 1946 
140 1893 1911 1821 1522 1929 1581 2018 21 
1875 340 2195 2248 2142 2090 2355 2301 2267 
2231 2757 2737 2756 2736 2636 2637 2617 2616 
1671 1706 1687 1724 1743 1725 1744 1727 1779 
1761 1762 1745 1797 1140 1780 1711 1798 1781 
1763 1817 1728 1835 1799 1746 1783 1906 1853 
1888 1942 1889 1907 1926 1872 1855 1890 1801 
1908 1380 1837 1818 1819 1560 1891 80 1767 
1241 1749 1892 1731 1873 1540 1713 1261 1520 
1802 1181 1201 1580 1361 1281 40 1460 60 
1541 1301 100 1561 20 120 1521 1620 1481 
1441 1362 1461 0 280 2373 2213 2285 320 
2739 2738 2758 2759 2566 2565 2567 2564 2569 
2571 2568 2570 2573 2572 2574 2575 2579 2578 
2577 2576 2582 2581 2583 2580 2584 2586 2585 
2587 2590 2591 2589 2588 2595 2594 2592 2593 
2596 2599 2597 2598 2639 2638 2618 2619 1688 
1672 1707 1673 1710 1689 1691 1708 1020 1726 
1674 1675 1676 1709 1100 2397 1120 762 820 
1080 1060 900 1220 1180 1695 1692 1693 1160 
1764 1280 1782 1854 1800 1748 1765 1300 1729 
1836 1747 1500 1340 1730 1360 1001 1712 1784 
1040 1041 1480 1766 1440 1081 1320 1420 1400 
1141 1101 1161 1102 942 1121 1122 1082 1062 
1221 1142 1341 1321 1063 1202 1282 1183 1182 
1242 1222 1262 1401 1640 1243 1601 1543 2178 
2160 2319 2761 2740 2760 2741 2765 2763 2764 
2762 2769 2768 2766 2767 2772 2771 2770 2773 
2775 2774 2776 2777 2779 2781 2778 2780 2785 
2782 2784 2783 2786 2787 2788 2789 2791 2792 
2793 2790 2795 2796 2797 2794 2252 2180 2305 
2216 2323 2375 2055 2321 1983 2376 2358 2287 
2304 2109 2270 2359 2163 2394 2360 2395 500 
2235 2306 640 2377 2341 341 2324 2253 520 
2396 2342 840 2307 2217 2199 2271 680 2325 
461 441 800 2343 421 2361 2378 660 1690 
700 362 2379 860 720 2289 740 561 542 
462 482 422 761 541 521 601 780 721 
1200 920 880 661 1677 681 722 1694 682 
881 960 1240 1260 940 802 861 801 980 
822 1000 921 901 862 783 742 803 823 
941 981 961 804 1061 843 1002 903 922 
962 923 883 1021 1043 982 1022 1042 1083 
1203 1163 1103 1162 1223 1381 1184 1421 2249 
1402 220 2338 1502 1621 1947 2302 1342 260 
2143 1382 2392 240 2320 1523 2232 2196 1582 
2356 201 300 2214 2250 2179 2161 2215 2108 
2126 41 161 2303 2198 2374 2251 2339 2357 
2234 2393 2233 42 2162 2197 182 2268 2144 
143 23 83 360 2037 2073 1644 3 84 
2019 103 2269 2286 163 2001 440 2340 480 
380 2091 460 2322 400 221 281 2127 420 
261 2288 223 321 282 2145 580 301 600 
2181 540 302 262 620 560 361 263 381 
264 401 481 363 342 442 501 323 382 
402 443 383 343 403 522 423 463 621 
404 581 582 701 760 502 641 562 602 
583 563 702 622 703 643 683 781 662 
782 623 821 841 741 663 664 723 743 
704 645 684 763 842 764 824 744 882 
784 785 902 825 864 863 805 844 963 
884 943 924 1003 1023 983 1044 1024 1123 
1143 1045 1322 1064 1144 1004 1542 1084 1302 
181 1263 1124 1164 1204 1105 1185 1224 1145 
1283 1303 1363 1562 1442 1501 1244 1383 1483 
1482 1422 1344 1462 1641 1544 1563 200 1463 
1423 1404 1503 1564 1602 61 81 162 141 
1443 1642 1464 1405 1583 1545 121 1584 1622 
2 102 142 1965 82 1623 122 1604 63 
1643 1605 22 43 4 1625 123 62 104 
64 25 45 44 26 144 124 241 85 
105 65 242 222 203 183 165 204 184 
146 166 283 224 243 244 205 225 245 
303 226 206 304 322 285 324 305 284 
325 345 364 344 365 346 424 384 385 
425 405 444 483 445 523 484 464 543 
503 504 485 642 544 564 524 604 584 
565 603 605 585 644 624 625 626 665 
646 705 724 686 685 706 725 746 765 
745 766 806 787 786 845 826 904 865 
846 886 905 866 885 925 964 944 906 
945 984 965 1025 1104 1065 985 1085 1086 
1066 1046 1205 1106 1087 1126 1125 1225 1165 
1264 1186 1284 1226 1343 1323 1304 1265 1364 
1324 1365 1403 1285 1384 1385 1345 1366 1424 
1346 1444 1524 1367 1406 1387 1445 1426 1407 
1425 1484 1485 1465 1603 1504 1505 101 1486 
1506 1525 1565 1546 1585 1566 1624 1567 1586 
1645 1606 1626 24 1647 6 1646 27 5 
7 46 47 66 202 67 87 86 106 
164 145 125 127 147 126 107 187 186 
148 185 167 188 208 227 207 265 266 
247 246 286 267 306 287 327 366 307 
326 367 387 406 386 347 407 465 426 
427 446 447 466 467 486 525 505 506 
526 546 547 545 587 586 567 566 628 
607 627 606 647 667 687 688 666 727 
707 726 708 767 768 747 748 788 828 
827 808 807 847 887 868 867 908 926 
907 888 947 946 966 927 967 987 986 
1005 1006 1068 1026 1067 1047 1107 1089 1088 
1127 1166 1146 1108 1128 1167 1147 1245 1206 
1208 1227 1207 1187 1247 1228 1266 1246 1267 
1305 1287 1325 1286 1326 1386 1307 1306 1388 
1369 1347 1348 1368 1409 1446 1408 1427 1428 
1448 1467 1447 1466 1487 1468 1507 1488 1508 
1526 1528 1527 1547 1548 1587 1588 1607 1568 
1629 1628 1608 1627 28 1649 9 8 1648 
29 49 50 48 68 90 89 69 88 
108 129 109 168 128 149 209 189 210 
169 249 229 248 228 268 288 269 289 
329 328 308 309 388 348 349 368 369 
409 408 428 429 449 469 468 448 489 
507 487 488 508 527 549 548 528 589 
568 588 569 609 608 629 649 669 689 
648 668 729 728 709 750 749 769 770 
810 829 809 789 790 849 869 870 848 
909 890 889 910 948 929 928 949 989 
968 988 969 1027 1029 1008 1028 1007 1009 
1048 1049 1069 1090 1109 1129 1110 1130 1148 
1149 1168 1189 1210 1209 1188 1230 1229 1249 
1248 1268 1289 1288 1269 1309 1308 1328 1327 
1370 1371 1351 1349 1350 1389 1390 1391 1411 
1410 1431 1429 1449 1430 1471 1450 1470 1451 
1469 1489 1491 1509 1510 1511 1490 1549 1529 
1531 1550 1530 1570 1590 1589 1569 1611 1610 
1609 1630 1631 11 1650 10 1651 30 51 
31 91 70 92 71 111 110 130 131 
151 150 171 170 190 191 211 231 251 
271 250 230 270 311 291 290 331 351 
330 310 350 371 390 370 430 389 411 
410 431 471 470 450 451 491 490 510 
509 530 551 550 529 590 570 591 571 
631 630 610 611 651 650 671 670 690 
731 710 711 730 691 751 771 772 811 
792 791 851 850 830 831 912 871 911 
891 892 951 950 930 931 990 991 970 
971 1031 1030 1011 1010 1050 1071 1051 1070 
1112 1092 1111 1091 1131 1150 1151 1132 1211 
1191 1170 1190 1169 1251 1232 1250 1231 1291 
1271 1290 1270 1329 1311 1310 1331 1330 1352 
1353 1373 1372 1412 1393 1413 1392 1453 1432 
1452 1433 1472 1473 1493 1513 1492 1533 1512 
1552 1551 1532 1572 1593 1571 1591 1592 1632 
1613 1633 1612 1652 12 13 1653 53 33 
52 32 73 72 113 93 132 133 112 
153 152 193 172 192 173 212 213 233 
232 252 273 272 253 293 312 313 292 
332 352 353 333 373 392 391 372 432 
433 413 412 453 473 452 472 492 493 
512 511 531 532 552 553 593 592 573 
572 633 613 612 632 653 693 672 652 
673 692 732 733 712 713 753 773 752 
794 813 812 793 833 853 832 852 873 
893 913 872 914 932 933 953 952 973 
993 992 972 1013 1032 1012 1033 1073 1053 
1052 1072 1093 1114 1113 1153 1134 1152 1133 
1173 1171 1172 1192 1233 1213 1253 1252 1212 
1292 1273 1293 1272 1313 1312 1333 1332 1355 
1375 1374 1354 1394 1414 1415 1395 1435 1455 
1434 1454 1475 1495 1494 1474 1515 1534 1535 
1514 1554 1553 1555 1575 1574 1573 1594 1595 
1615 1614 1635 1634 1654 15 14 1655 35 
55 75 54 34 114 94 115 95 74 
135 134 155 154 195 174 175 194 234 
214 235 215 255 275 274 254 295 294 
314 315 335 375 355 334 354 374 415 
393 394 435 455 414 434 495 475 474 
454 494 513 514 515 554 534 533 555 
575 574 595 594 615 614 634 635 695 
655 694 675 674 654 734 715 735 714 
774 775 755 754 815 795 814 854 834 
855 835 895 874 916 915 894 875 935 
954 934 955 994 974 995 975 1015 1014 
1034 1035 1054 1074 1075 1055 1094 1136 1115 
1095 1135 1154 1174 1155 1175 1193 1215 1194 
1195 1214 1235 1234 1255 1254 1275 1295 1294 
1274 1315 1335 1314 1334 1397 1376 1377 1356 
1416 1437 1396 1417 1456 1477 1436 1457 1497 
1476 1496 1517 1537 1516 1536 1557 1576 1577 
1597 1556 1637 1617 1596 1616 1636 17 1657 
16 1656 36 37 57 77 76 56 97 
137 116 96 117 157 136 177 156 197 
217 237 196 176 257 216 277 236 256 
317 297 276 296 336 316 357 337 377 
356 397 376 396 416 417 395 437 456 
477 457 436 497 517 496 476 537 535 
516 557 536 577 576 556 597 637 596 
616 617 636 656 677 657 697 676 717 
696 736 716 737 757 797 776 756 817 
777 837 816 857 796 877 856 836 897 
876 917 896 937 956 957 977 936 997 
976 1017 996 1037 1057 1036 1077 1056 1016 
1096 1117 1076 1097 1137 1116 1157 1176 1177 
1197 1156 1216 1196 1217 1237 1256 1257 1277 
1236 1317 1276 1296 1297 1337 1357 1336 1316 
499 479 1578 1558 539 1598 519 1618 579 
559 1638 1658 18 619 38 599 639 78 
659 58 98 118 699 679 158 138 719 
739 779 198 178 759 238 819 218 799 
298 258 839 278 879 859 919 338 318 
899 959 358 378 939 999 398 979 418 
438 458 1019 1039 478 1059 1079 498 1119 
538 1099 518 1139 1159 558 578 598 1199 
618 1219 1179 1259 658 638 1239 678 1299 
718 1279 698 1339 758 738 1319 1359 1379 
798 778 1399 818 838 1419 1459 858 878 
1439 1479 1499 898 918 938 1519 958 1539 
1559 998 1599 1018 1579 978 1639 1619 1058 
1038 1078 1098 1659 19 59 1118 39 1138 
99 79 1158 1178 119 1218 139 1198 1258 
1238 159 179 1298 199 1278 219 1338 239 
1318 1378 279 259 1358 299 1398 319 1418 
1438 339 1458 359 379 1498 399 1478 419 
459 439 1518 1538 2399 2398 2401 2400 2402 
2405 2403 2404 2408 2409 2407 2406 2410 2413 
2411 2412 2417 2416 2414 2415 2419 2420 2421 
2418 2426 2423 2427 2422 2425 2424 2428 2430 
2431 2429 2435 2433 2434 2432 2438 2437 2439 
2436 2443 2441 2440 2442 2447 2444 2445 2446 
2451 2449 2450 2448 2455 2454 2452 2453 2459 
2457 2456 2458 2463 2461 2460 2462 2467 2465 
2464 2466 2469 2471 2470 2468 2472 2473 2475 
2474 2481 2477 2479 2480 2478 2476 2485 2484 
2483 2482 2489 2486 2488 2487 2493 2492 2490 
2491 2497 2496 2495 2494 2501 2498 2500 2499 
2504 2502 2505 2503 2509 2508 2507 2506 2511 
2512 2513 2510 2516 2514 2515 2517 2518 2521 
2520 2519 2522 2523 2524 2525 2527 2528 2529 
2526 2531 2530 2533 2532 2534 2535 2536 2537 
2538 2539 2541 2540 2542 2543 2544 2545 2546 
2547 2548 2551 2550 2549 2554 2555 2553 2552 
2558 2556 2557 2559 2560 2561 2562 2563 
FIELD FieldData 7
r 3 2798 float
-0.5125 -0.4875 0 -0.5375 -0.4625 0 -0.5375 -0.4875 0 
-0.5125 -0.4625 0 -0.487805 -0.4875 0 -0.463415 -0.4875 0 
-0.463415 -0.4625 0 -0.487805 -0.4625 0 -0.439024 -0.4625 0 
-0.439024 -0.4875 0 -0.414634 -0.4875 0 -0.414634 -0.4625 0 
-0.365854 -0.4875 0 -0.390244 -0.4625 0 -0.365854 -0.4625 0 
-0.390244 -0.4875 0 -0.341463 -0.4625 0 -0.317073 -0.4875 0 
-0.317073 -0.4625 0 -0.341463 -0.4875 0 -0.292683 -0.4875 0 
-0.268293 -0.4625 0 -0.292683 -0.4625 0 -0.268293 -0.4875 0 
-0.219512 -0.4625 0 -0.243902 -0.4625 0 -0.219512 -0.4875 0 
-0.243902 -0.4875 0 -0.195122 -0.4625 0 -0.170732 -0.4875 0 
-0.195122 -0.4875 0 -0.170732 -0.4625 0 -0.121951 -0.4625 0 
-0.121951 -0.4875 0 -0.146341 -0.4625 0 -0.146341 -0.4875 0 
-0.097561 -0.4875 0 -0.097561 -0.4625 0 -0.0731707 -0.4875 0 
-0.0731707 -0.4625 0 -0.0243903 -0.4875 0 -1.86265e-08 -0.4875 0 
-0.0243903 -0.4625 0 -0.0487805 -0.4625 0 -1.86265e-08 -0.4625 0 
-0.0487805 -0.4875 0 0.0243902 -0.4625 0 0.0487805 -0.4875 0 
0.0243902 -0.4875 0 0.0487805 -0.4625 0 0.0731707 -0.4875 0 
0.097561 -0.4625 0 0.097561 -0.4875 0 0.0731707 -0.4625 0 
0.121951 -0.4625 0 0.146341 -0.4875 0 0.146341 -0.4625 0 
0.121951 -0.4875 0 0.170732 -0.4875 0 0.195122 -0.4625 0 
0.170732 -0.4625 0 0.195122 -0.4875 0 0.243902 -0.4875 0 
0.219512 -0.4625 0 0.243902 -0.4625 0 0.219512 -0.4875 0 
0.268293 -0.4875 0 0.268293 -0.4625 0 0.292683 -0.4875 0 
0.292683 -0.4625 0 0.317073 -0.4625 0 0.341463 -0.4875 0 
0.341463 -0.4625 0 0.317073 -0.4875 0 0.390244 -0.4625 0 
0.390244 -0.4875 0 0.365854 -0.4625 0 0.365854 -0.4875 0 
0.414634 -0.4625 0 0.439024 -0.4625 0 0.414634 -0.4875 0 
0.439024 -0.4875 0 0.487805 -0.4875 0 0.487805 -0.4625 0 
0.463415 -0.4875 0 0.463415 -0.4625 0 0.5375 -0.4875 0 
0.5125 -0.4875 0 0.5125 -0.4625 0 0.5375 -0.4625 0 
-0.5375 -0.4375 0 -0.5125 -0.4125 0 -0.5375 -0.4125 0 
-0.5125 -0.4375 0 -0.467852 -0.403576 0 -0.46627 -0.434633 0 
-0.488344 -0.437129 0 -0.488571 -0.411141 0 -0.421045 -0.413972 0 
-0.442671 -0.438473 0 -0.417464 -0.436814 0 -0.401555 -0.402733 0 
-0.446979 -0.413592 0 -0.36595 -0.437957 0 -0.358914 -0.410791 0 
-0.393645 -0.438254 0 -0.38376 -0.417987 0 -0.33564 -0.411708 0 
-0.311006 -0.412788 0 -0.318484 -0.437456 0 -0.342453 -0.436753 0 
-0.270477 -0.436846 0 -0.26314 -0.410696 0 -0.28676 -0.411595 0 
-0.294109 -0.4372 0 -0.204925 -0.436112 0 -0.226148 -0.434447 0 
-0.2475 -0.436303 0 -0.219405 -0.406532 0 -0.24127 -0.407294 0 
-0.153875 -0.408115 0 -0.175938 -0.409198 0 -0.183103 -0.436012 0 
-0.160941 -0.436608 0 -0.198028 -0.408027 0 -0.118201 -0.436482 0 
-0.139538 -0.434799 0 -0.110658 -0.410621 0 -0.132467 -0.406139 0 
-0.0715918 -0.437156 0 -0.063907 -0.411231 0 -0.0950667 -0.437278 0 
-0.0874111 -0.411482 0 -0.0482304 -0.437125 0 -0.0407206 -0.41101 0 
-0.00064939 -0.437881 0 -0.0248538 -0.437272 0 -0.017087 -0.412349 0 
0.0345186 -0.41529 0 0.00820723 -0.414684 0 0.0248109 -0.438291 0 
0.0604856 -0.413937 0 0.0504614 -0.438037 0 0.0752691 -0.437738 0 
0.0853172 -0.41301 0 0.0998246 -0.438008 0 0.110028 -0.41481 0 
0.140567 -0.421702 0 0.125613 -0.438975 0 0.156655 -0.439666 0 
0.199769 -0.416985 0 0.171378 -0.417315 0 0.183902 -0.438589 0 
0.155593 -0.40041 0 0.226718 -0.418759 0 0.240139 -0.439483 0 
0.211186 -0.43951 0 0.25642 -0.420257 0 0.270068 -0.439707 0 
0.298928 -0.439227 0 0.28619 -0.419236 0 0.317879 -0.419156 0 
0.303263 -0.400282 0 0.334324 -0.401412 0 0.327091 -0.439134 0 
0.380479 -0.438781 0 0.351231 -0.418087 0 0.353598 -0.439139 0 
0.382132 -0.417524 0 0.399034 -0.400925 0 0.413924 -0.418703 0 
0.407385 -0.439615 0 0.435468 -0.438962 0 0.438193 -0.414087 0 
0.462555 -0.413617 0 0.460735 -0.438176 0 0.48736 -0.439647 0 
0.486722 -0.416923 0 0.5375 -0.4125 0 0.5125 -0.4375 0 
0.5375 -0.4375 0 0.5125 -0.4125 0 -0.5375 -0.3875 0 
-0.5125 -0.3625 0 -0.5125 -0.3875 0 -0.5375 -0.3625 0 
-0.453297 -0.383101 0 -0.489318 -0.383856 0 -0.49091 -0.351935 0 
-0.47229 -0.368715 0 -0.440103 -0.360485 0 -0.417755 -0.370608 0 
-0.430341 -0.39105 0 -0.39623 -0.379803 0 -0.359793 -0.372708 0 
-0.37323 -0.391752 0 -0.381386 -0.359596 0 -0.318166 -0.363253 0 
-0.340484 -0.386741 0 -0.34013 -0.357082 0 -0.316225 -0.387888 0 
-0.291678 -0.386694 0 -0.270858 -0.358077 0 -0.294143 -0.361398 0 
-0.268095 -0.384501 0 -0.245991 -0.379993 0 -0.223787 -0.379006 0 
-0.201761 -0.379355 0 -0.225994 -0.352009 0 -0.203888 -0.351323 0 
-0.248734 -0.352885 0 -0.158709 -0.354245 0 -0.157318 -0.380971 0 
-0.179824 -0.381899 0 -0.18161 -0.354641 0 -0.114548 -0.355553 0 
-0.113391 -0.383084 0 -0.135374 -0.377535 0 -0.0685338 -0.35988 0 
-0.091954 -0.359591 0 -0.0903742 -0.385718 0 -0.0666575 -0.385442 0 
-0.0213117 -0.360424 0 -0.0194979 -0.38666 0 -0.0430489 -0.384981 0 
-0.0447997 -0.359327 0 0.0289478 -0.391626 0 0.024607 -0.36603 0 
0.00172131 -0.364279 0 0.00444516 -0.390411 0 0.0476964 -0.365293 0 
0.0534304 -0.390502 0 0.0779887 -0.388334 0 0.0952081 -0.362182 0 
0.071138 -0.363951 0 0.121152 -0.374301 0 0.128314 -0.399431 0 
0.14604 -0.377302 0 0.141831 -0.352518 0 0.101628 -0.388653 0 
0.17297 -0.381759 0 0.166302 -0.356706 0 0.190215 -0.396676 0 
0.189899 -0.361145 0 0.242506 -0.37626 0 0.207581 -0.377304 0 
0.22087 -0.395829 0 0.226371 -0.360366 0 0.247324 -0.398643 0 
0.274213 -0.398423 0 0.270412 -0.376256 0 0.291921 -0.357397 0 
0.298099 -0.378479 0 0.260069 -0.355586 0 0.322817 -0.357845 0 
0.324684 -0.379861 0 0.349892 -0.377931 0 0.380422 -0.381826 0 
0.360514 -0.358596 0 0.387334 -0.360061 0 0.364893 -0.398529 0 
0.408145 -0.378432 0 0.422414 -0.359315 0 0.443148 -0.372398 0 
0.428198 -0.392694 0 0.478593 -0.375559 0 0.489633 -0.355928 0 
0.45832 -0.391068 0 0.461046 -0.356814 0 0.489695 -0.393705 0 
0.5125 -0.3875 0 0.5375 -0.3875 0 0.5125 -0.3625 0 
0.5375 -0.3625 0 -0.5375 -0.3375 0 -0.5375 -0.3125 0 
-0.5125 -0.3375 0 -0.5125 -0.3125 0 -0.458778 -0.346348 0 
-0.459309 -0.313423 0 -0.47872 -0.331957 0 -0.490642 -0.312431 0 
-0.42097 -0.308934 0 -0.42277 -0.340286 0 -0.401827 -0.347967 0 
-0.441082 -0.326862 0 -0.401602 -0.319423 0 -0.361209 -0.343228 0 
-0.379765 -0.300634 0 -0.38072 -0.329542 0 -0.359667 -0.31212 0 
-0.304473 -0.311151 0 -0.341268 -0.327111 0 -0.320369 -0.33616 0 
-0.327126 -0.305281 0 -0.28226 -0.305177 0 -0.297216 -0.336181 0 
-0.252857 -0.326192 0 -0.274656 -0.331253 0 -0.208094 -0.322949 0 
-0.23002 -0.325384 0 -0.170921 -0.30263 0 -0.163118 -0.328461 0 
-0.186314 -0.327133 0 -0.119798 -0.326343 0 -0.141806 -0.321402 0 
-0.136565 -0.349512 0 -0.106033 -0.302057 0 -0.0980245 -0.331869 0 
-0.0524811 -0.333488 0 -0.0841989 -0.306442 0 -0.0613241 -0.307627 0 
-0.0755833 -0.333901 0 -0.0296725 -0.333348 0 -0.0148499 -0.308543 0 
-0.0069624 -0.335781 0 -0.0381674 -0.306545 0 0.0367416 -0.33917 0 