# vtk DataFile Version 4.0
vtk output
ASCII
DATASET POLYDATA
FIELD FieldData 4
domain 1 3 string
domain_min:-20|-15
domain_max:20|15
cell_size:0.05

variables 1 2 string
dt:0.000372678
T:0.352191

constants 1 10 string
xsize:2
ysize:1
csize:0.05
dx:0.0238095
h:0.025
rho0:1000
mass:0.566894
g:1|0
c:13.4164
CFL:0.2

functions 1 8 string
time:T=(T+dt)
continuity:rho_dot=((-(rho*sph_D00(v,mass,rho,Wp52220)))+(((0.1*c)*h)*sph_L00(rho,mass,rho,Wp52220)))
irho:rho=(rho+int1((rho_dot,dt))
EOS:p=(((c^2)*(rho-rho0))+10000)
euler:a=if((gid,(0*v),(((-((1/rho)*sph_G11(p,mass,rho,Wp52220)))+(0.01*sph_L00(v,mass,rho,Wp52220)))+g))
vel:v=(v+int1((a,dt))
pos:r=(r+int1((v,dt))
new_dt:dt=(CFL*min((sqrt(((h/fmax(magnitude((a)))),(h/c)))

POINTS 2798 float
-0.5375 -0.4625 0 -0.5375 -0.4875 0 -0.5125 -0.4625 0 
-0.5125 -0.4875 0 -0.487805 -0.4875 0 -0.463415 -0.4875 0 
-0.463415 -0.4625 0 -0.487805 -0.4625 0 -0.439024 -0.4875 0 
-0.414634 -0.4625 0 -0.414634 -0.4875 0 -0.439024 -0.4625 0 
-0.365854 -0.4875 0 -0.390244 -0.4625 0 -0.365854 -0.4625 0 
-0.390244 -0.4875 0 -0.341463 -0.4875 0 -0.317073 -0.4625 0 
-0.317073 -0.4875 0 -0.341463 -0.4625 0 -0.292683 -0.4625 0 
-0.268293 -0.4875 0 -0.292683 -0.4875 0 -0.268293 -0.4625 0 
-0.219512 -0.4875 0 -0.243902 -0.4875 0 -0.243902 -0.4625 0 
-0.219512 -0.4625 0 -0.170732 -0.4875 0 -0.170732 -0.4625 0 
-0.195122 -0.4875 0 -0.195122 -0.4625 0 -0.121951 -0.4625 0 
-0.146341 -0.4875 0 -0.146341 -0.4625 0 -0.121951 -0.4875 0 
-0.0731707 -0.4875 0 -0.097561 -0.4875 0 -0.097561 -0.4625 0 
-0.0731707 -0.4625 0 -0.0487805 -0.4625 0 -1.86265e-08 -0.4625 0 
-1.86265e-08 -0.4875 0 -0.0243903 -0.4625 0 -0.0243903 -0.4875 0 
-0.0487805 -0.4875 0 0.0487805 -0.4875 0 0.0243902 -0.4875 0 
0.0243902 -0.4625 0 0.0487805 -0.4625 0 0.0731707 -0.4625 0 
0.097561 -0.4875 0 0.097561 -0.4625 0 0.0731707 -0.4875 0 
0.146341 -0.4625 0 0.146341 -0.4875 0 0.121951 -0.4625 0 
0.121951 -0.4875 0 0.170732 -0.4875 0 0.195122 -0.4625 0 
0.195122 -0.4875 0 0.170732 -0.4625 0 0.219512 -0.4875 0 
0.243902 -0.4625 0 0.243902 -0.4875 0 0.219512 -0.4625 0 
0.268293 -0.4875 0 0.292683 -0.4875 0 0.292683 -0.4625 0 
0.268293 -0.4625 0 0.317073 -0.4875 0 0.341463 -0.4875 0 
0.341463 -0.4625 0 0.317073 -0.4625 0 0.365854 -0.4625 0 
0.365854 -0.4875 0 0.390244 -0.4625 0 0.390244 -0.4875 0 
0.439024 -0.4625 0 0.439024 -0.4875 0 0.414634 -0.4625 0 
0.414634 -0.4875 0 0.487805 -0.4625 0 0.487805 -0.4875 0 
0.463415 -0.4625 0 0.463415 -0.4875 0 0.5375 -0.4625 0 
0.5375 -0.4875 0 0.5125 -0.4875 0 0.5125 -0.4625 0 
-0.5125 -0.4125 0 -0.5375 -0.4375 0 -0.5375 -0.4125 0 
-0.5125 -0.4375 0 -0.487933 -0.412077 0 -0.487916 -0.437304 0 
-0.463638 -0.411848 0 -0.463547 -0.437194 0 -0.41515 -0.437213 0 
-0.439499 -0.411794 0 -0.439332 -0.437205 0 -0.415429 -0.411813 0 
-0.366965 -0.412248 0 -0.366598 -0.43735 0 -0.390925 -0.437304 0 
-0.39128 -0.412068 0 -0.317676 -0.437458 0 -0.317887 -0.412584 0 
-0.34249 -0.412501 0 -0.342172 -0.437443 0 -0.293212 -0.41273 0 
-0.29314 -0.437531 0 -0.268533 -0.412667 0 -0.268608 -0.437503 0 
-0.218927 -0.413034 0 -0.243792 -0.412877 0 -0.219422 -0.43764 0 
-0.244058 -0.437581 0 -0.194023 -0.413026 0 -0.169148 -0.412986 0 
-0.170115 -0.437624 0 -0.194752 -0.437639 0 -0.145479 -0.43766 0 
-0.14428 -0.41307 0 -0.120811 -0.437663 0 -0.119381 -0.413084 0 
-0.0961501 -0.437661 0 -0.0696267 -0.413074 0 -0.0714984 -0.437666 0 
-0.0944949 -0.413072 0 -0.0447732 -0.413065 0 -0.0468529 -0.437668 0 
-0.0199481 -0.413055 0 -0.0222183 -0.437672 0 0.0270059 -0.437669 0 
0.00484765 -0.413038 0 0.00240252 -0.437671 0 0.0296078 -0.413013 0 
0.0789983 -0.412949 0 0.0761565 -0.437656 0 0.0515913 -0.437665 0 
0.0543247 -0.412985 0 0.125217 -0.437632 0 0.149711 -0.437622 0 
0.128199 -0.412862 0 0.103624 -0.412907 0 0.100699 -0.437645 0 
0.152718 -0.412814 0 0.177177 -0.412764 0 0.19861 -0.437603 0 
0.174177 -0.437613 0 0.225895 -0.412643 0 0.247355 -0.437589 0 
0.201569 -0.412703 0 0.223001 -0.437592 0 0.25016 -0.412603 0 
0.271675 -0.437586 0 0.27436 -0.412551 0 0.298477 -0.412468 0 
0.29595 -0.437574 0 0.346438 -0.412277 0 0.322507 -0.412386 0 
0.320171 -0.437558 0 0.344336 -0.437535 0 0.392413 -0.437452 0 
0.370259 -0.412107 0 0.368413 -0.43748 0 0.393978 -0.41201 0 
0.4402 -0.43737 0 0.441045 -0.411693 0 0.4176 -0.411865 0 
0.416353 -0.437419 0 0.488288 -0.437853 0 0.488329 -0.412852 0 
0.464058 -0.437432 0 0.4645 -0.411999 0 0.5375 -0.4125 0 
0.5375 -0.4375 0 0.5125 -0.4375 0 0.5125 -0.4125 0 
-0.5125 -0.3625 0 -0.5375 -0.3625 0 -0.5125 -0.3875 0 
-0.5375 -0.3875 0 -0.463699 -0.361038 0 -0.48794 -0.361558 0 
-0.487937 -0.386833 0 -0.46366 -0.386465 0 -0.439711 -0.360693 0 
-0.439574 -0.386296 0 -0.415859 -0.360769 0 -0.415592 -0.386338 0 
-0.39147 -0.386827 0 -0.39178 -0.361605 0 -0.367113 -0.387201 0 
-0.367373 -0.362222 0 -0.342558 -0.387655 0 -0.317923 -0.363262 0 
-0.317836 -0.387858 0 -0.342743 -0.362905 0 -0.268218 -0.388001 0 
-0.293015 -0.363535 0 -0.293027 -0.388079 0 -0.268126 -0.363446 0 
-0.21821 -0.38866 0 -0.243294 -0.388413 0 -0.217758 -0.364471 0 
-0.243049 -0.36415 0 -0.168049 -0.388568 0 -0.167307 -0.364289 0 
-0.193108 -0.388638 0 -0.192489 -0.3644 0 -0.116883 -0.36451 0 
-0.117903 -0.388718 0 -0.142992 -0.388703 0 -0.142124 -0.364496 0 
-0.0665528 -0.364387 0 -0.0928429 -0.388679 0 -0.0916825 -0.364414 0 
-0.0678182 -0.388673 0 -0.0428154 -0.388638 0 -0.0178586 -0.388592 0 
-0.0414509 -0.364319 0 -0.0164012 -0.364214 0 0.00857713 -0.364115 0 
0.0070481 -0.388541 0 0.0319053 -0.388471 0 0.033498 -0.363988 0 
0.056699 -0.388392 0 0.0831109 -0.363682 0 0.0814275 -0.388304 0 
0.0583477 -0.363841 0 0.107785 -0.363503 0 0.130672 -0.388093 0 
0.106088 -0.388203 0 0.132361 -0.363308 0 0.155174 -0.387977 0 
0.17959 -0.387851 0 0.181217 -0.362887 0 0.156838 -0.363101 0 
0.229709 -0.362473 0 0.203922 -0.387718 0 0.228176 -0.387598 0 
0.205507 -0.362675 0 0.253803 -0.362265 0 0.276423 -0.387348 0 
0.277772 -0.362005 0 0.25235 -0.387488 0 0.300386 -0.387174 0 
0.325365 -0.361438 0 0.349008 -0.361108 0 0.347997 -0.386769 0 
0.324247 -0.386996 0 0.301625 -0.361717 0 0.396015 -0.360453 0 
0.372556 -0.360717 0 0.395177 -0.386309 0 0.37163 -0.386489 0 
0.418587 -0.385977 0 0.442205 -0.359095 0 0.441728 -0.385579 0 
0.419285 -0.359828 0 0.464959 -0.359891 0 0.464798 -0.386124 0 
0.488421 -0.387675 0 0.488418 -0.362411 0 0.5375 -0.3875 0 
0.5125 -0.3875 0 0.5125 -0.3625 0 0.5375 -0.3625 0 
-0.5375 -0.3125 0 -0.5125 -0.3375 0 -0.5125 -0.3125 0 
-0.5375 -0.3375 0 -0.463717 -0.309973 0 -0.487908 -0.310972 0 
-0.46372 -0.335544 0 -0.487936 -0.336265 0 -0.440035 -0.308882 0 
-0.416191 -0.335074 0 -0.439867 -0.334903 0 -0.416519 -0.309259 0 
-0.367796 -0.312574 0 -0.367632 -0.337335 0 -0.392435 -0.311317 0 
-0.392131 -0.336421 0 -0.342899 -0.338238 0 -0.342925 -0.313687 0 
-0.317984 -0.338767 0 -0.317904 -0.314378 0 -0.268029 -0.338973 0 
-0.292839 -0.314674 0 -0.267788 -0.314586 0 -0.292993 -0.33907 0 
-0.242384 -0.316262 0 -0.216614 -0.316688 0 -0.242806 -0.340091 0 
-0.217291 -0.340475 0 -0.165627 -0.315936 0 -0.166567 -0.340087 0 
-0.190984 -0.316289 0 -0.191845 -0.340287 0 -0.14131 -0.340402 0 
-0.140312 -0.316402 0 -0.114835 -0.316504 0 -0.115942 -0.340444 0 
-0.0906096 -0.340255 0 -0.089375 -0.31619 0 -0.064087 -0.316025 0 
-0.0653971 -0.340179 0 -0.0402263 -0.340088 0 -0.0150952 -0.339908 0 
-0.0388797 -0.315923 0 -0.0136808 -0.315675 0 0.00993877 -0.339739 0 
0.0114225 -0.315396 0 0.0348921 -0.339553 0 0.0363968 -0.31513 0 
0.0597707 -0.339322 0 0.0845474 -0.339072 0 0.0860552 -0.314455 0 
0.061278 -0.314812 0 0.110719 -0.314077 0 0.133777 -0.338501 0 
0.109216 -0.338796 0 0.135276 -0.313681 0 0.184056 -0.312871 0 
0.158232 -0.338197 0 0.182586 -0.337891 0 0.159723 -0.313279 0 
0.208259 -0.31245 0 0.230984 -0.337282 0 0.232312 -0.311998 0 
0.206842 -0.337589 0 0.254991 -0.336934 0 0.27999 -0.310996 0 
0.278858 -0.336545 0 0.25621 -0.311504 0 0.326288 -0.33578 0 
0.303689 -0.310529 0 0.349878 -0.335361 0 0.302615 -0.336164 0 
0.327322 -0.310086 0 0.350886 -0.309582 0 0.373369 -0.334875 0 
0.396754 -0.334493 0 0.397587 -0.308417 0 0.374316 -0.308932 0 
0.419919 -0.333507 0 0.420578 -0.306971 0 0.442641 -0.33228 0 
0.443146 -0.305226 0 0.488401 -0.337158 0 0.488412 -0.311926 0 
0.465345 -0.306291 0 0.465087 -0.333282 0 0.5125 -0.3375 0 
0.5125 -0.3125 0 0.5375 -0.3375 0 0.5375 -0.3125 0 
-0.5125 -0.2625 0 -0.5125 -0.2875 0 -0.5375 -0.2875 0 
-0.5375 -0.2625 0 -0.463793 -0.284278 0 -0.487901 -0.285684 0 
-0.487936 -0.260327 0 -0.46399 -0.258406 0 -0.41746 -0.257414 0 
-0.416939 -0.283357 0 -0.440733 -0.256081 0 -0.440315 -0.282591 0 
-0.393244 -0.261461 0 -0.368023 -0.287959 0 -0.392794 -0.28634 0 
-0.368384 -0.263404 0 -0.343049 -0.289222 0 -0.343413 -0.264775 0 
-0.31798 -0.290043 0 -0.318386 -0.265708 0 -0.268051 -0.266086 0 
-0.292873 -0.29034 0 -0.293279 -0.266053 0 -0.267735 -0.290296 0 
-0.216113 -0.293116 0 -0.242125 -0.292672 0 -0.242238 -0.269285 0 
-0.216022 -0.269725 0 -0.164891 -0.291811 0 -0.190082 -0.268608 0 
-0.164576 -0.267722 0 -0.190309 -0.292392 0 -0.139522 -0.292486 0 
-0.113932 -0.292697 0 -0.139119 -0.268655 0 -0.113435 -0.269015 0 
-0.062949 -0.291901 0 -0.0883336 -0.292232 0 -0.0877185 -0.268413 0 
-0.0621742 -0.267868 0 -0.0116926 -0.26736 0 -0.0125263 -0.291515 0 
-0.0368621 -0.267619 0 -0.0377321 -0.291784 0 0.0376886 -0.290725 0 
0.0386239 -0.2664 0 0.0126491 -0.291114 0 0.0134845 -0.266912 0 
0.0874084 -0.289848 0 0.0885291 -0.265296 0 0.0625995 -0.290308 0 
0.0636394 -0.265868 0 0.137857 -0.264052 0 0.113276 -0.264689 0 
0.136682 -0.288867 0 0.112104 -0.289367 0 0.186485 -0.262664 0 
0.162262 -0.263375 0 0.161127 -0.288349 0 0.185419 -0.287803 0 
0.210546 -0.261927 0 0.234483 -0.261189 0 0.209542 -0.287227 0 
0.233503 -0.286615 0 0.258356 -0.260496 0 0.2822 -0.259877 0 
0.281092 -0.28541 0 0.257336 -0.285985 0 0.329668 -0.258664 0 
0.305992 -0.259302 0 0.328458 -0.284368 0 0.304804 -0.284899 0 
0.39932 -0.255753 0 0.351994 -0.283739 0 0.375314 -0.28286 0 
[...]
POINT_DATA 2798
SCALARS id float
LOOKUP_TABLE default
2601 2600 2621 2620 2640 2642 2643 2641 2644 
2647 2646 2645 2650 2649 2651 2648 2652 2655 
2654 2653 2657 2658 2656 2659 2662 2660 2661 
2663 2666 2667 2664 2665 2671 2668 2669 2670 
2674 2672 2673 2675 2677 2681 2680 2679 2678 
2676 2684 2682 2683 2685 2687 2688 2689 2686 
2693 2692 2691 2690 2694 2697 2696 2695 2698 
2701 2700 2699 2702 2704 2705 2703 2706 2708 
2709 2707 2711 2710 2713 2712 2717 2716 2715 
2714 2721 2720 2719 2718 2743 2742 2722 2723 
2623 2602 2603 2622 1661 1660 1679 1678 1714 
1697 1696 1715 1751 1750 1732 1733 1786 1787 
1769 1768 1805 1804 1823 1822 1859 1841 1858 
1840 1877 1895 1894 1876 1912 1913 1930 1931 
1948 1967 1966 1949 1985 1984 2003 2002 2038 
2021 2020 2039 2075 2074 2056 2057 2110 2128 
2111 2093 2092 2129 2147 2164 2146 2183 2200 
2165 2182 2201 2218 2219 2237 2236 2273 2255 
2254 2272 2308 2291 2290 2309 2344 2345 2327 
2326 2380 2381 2362 2363 2745 2744 2724 2725 
2625 2605 2624 2604 1681 1663 1662 1680 1699 
1698 1717 1716 1734 1735 1752 1753 1770 1789 
1788 1771 1824 1807 1806 1825 1860 1842 1861 
1843 1896 1897 1878 1879 1933 1932 1914 1915 
1969 1950 1951 1968 1986 2004 1987 2005 2023 
2022 2040 2041 2058 2077 2076 2059 2095 2112 
2094 2113 2130 2148 2149 2131 2185 2166 2184 
2167 2203 2220 2221 2202 2238 2257 2275 2274 
2256 2239 2311 2293 2310 2292 2328 2347 2346 
2329 2365 2364 2382 2383 2746 2726 2727 2747 
2607 2626 2627 2606 1683 1665 1682 1664 1701 
1718 1700 1719 1755 1754 1737 1736 1772 1773 
1790 1791 1826 1809 1827 1808 1845 1863 1844 
1862 1899 1898 1881 1880 1916 1917 1935 1934 
1952 1953 1971 1970 1988 2006 1989 2007 2024 
2025 2042 2043 2060 2078 2079 2061 2097 2114 
2096 2115 2151 2132 2150 2133 2169 2186 2187 
2168 2204 2223 2222 2205 2258 2241 2276 2240 
2259 2277 2294 2312 2313 2295 2330 2331 2348 
2349 2384 2385 2367 2366 2728 2729 2748 2749 
2629 2628 2608 2609 1684 1666 1667 1685 1721 
1720 1703 1702 1739 1756 1738 1757 1774 1775 
1792 1793 1829 1810 1811 1828 1864 1846 1847 
1865 1900 1883 1901 1882 1918 1936 1919 1937 
1972 1954 1955 1973 2009 2008 1991 1990 2044 
2045 2026 2027 2080 2081 2062 2063 2117 2099 
2116 2098 2153 2135 2134 2152 2171 2189 2170 
2188 2207 2225 2224 2206 2261 2243 2260 2242 
2315 2278 2296 2279 2297 2314 2333 2350 2332 
2351 2387 2369 2368 2386 2730 2750 2751 2731 
2610 2630 2631 2611 1669 1686 1687 1668 1722 
1704 1723 1705 1758 1740 1741 1759 1776 1794 
1795 1777 1831 1812 1813 1830 1866 1868 1867 
1849 1848 1902 1885 1903 1884 1938 1921 1920 
1939 1956 1974 1975 1957 2010 2011 1992 1993 
2029 2028 2046 2047 2064 2065 2083 2082 2101 
2118 2119 2100 2137 2154 2155 2136 2190 2191 
2172 2173 2209 2227 2226 2208 2262 2245 2244 
2263 2299 2281 2280 2298 2334 2316 2317 2352 
2388 2389 2370 2753 2732 2733 2752 2612 2633 
2613 2632 1671 1688 1689 1670 1724 1706 1725 
1743 1760 1761 1742 1779 1778 1797 1796 1815 
1814 1833 1832 1870 1869 1850 1852 1851 1904 
1886 1905 1887 1888 1923 1940 1922 1924 1941 
1942 1958 1959 1977 1976 1960 1994 2012 2013 
1996 1995 2048 2031 2030 2049 2084 2085 2066 
2067 2103 2102 2121 2120 2156 2138 2157 2139 
2175 2192 2193 2174 2229 2211 2228 2210 2265 
2246 2247 2264 2283 2300 2282 2354 2318 2336 
2353 2335 2371 2390 2372 2735 2754 2755 2734 
2635 2634 2614 2615 1690 1673 1672 1707 1726 
1708 1727 1745 1744 1763 1762 1798 1780 1781 
1799 1817 1816 1835 1834 1871 1872 1854 1853 
1908 1889 1906 1890 1907 1943 1925 1926 1944 
1962 1961 1978 2014 1998 1997 1980 1979 2033 
2015 2050 2032 2016 2069 2051 2068 2086 2122 
2104 2087 2105 2141 2123 2158 2140 2159 2176 
2177 2195 2194 2231 2213 2230 2212 2266 2267 
2249 2248 2301 2284 2302 2355 2319 2320 2338 
2337 2374 2356 2373 2391 2392 2757 2737 2736 
2756 2636 2616 2617 2637 1674 1692 1691 1675 
1709 1710 1728 1729 1764 1747 1746 1765 1783 
1782 1784 1766 1800 1836 1818 1819 1801 1837 
1855 1856 1873 1891 1874 1892 1927 1928 1909 
1910 1946 1945 1963 1981 1999 1982 1964 2034 
2035 2017 2000 2052 2070 2071 2053 2107 2106 
2088 2089 2143 2142 2125 2124 2161 2197 2196 
2160 2179 2178 2215 2233 2232 2214 2250 2251 
2268 2304 2286 2303 2285 2321 2322 2340 2339 
2357 2394 2375 2393 2738 2759 2739 2758 2565 
2564 2567 2566 2570 2569 2568 2571 2572 2575 
2573 2574 2579 2578 2576 2577 2582 2580 2583 
2581 2584 2587 2586 2585 2590 2589 2591 2588 
2594 2592 2593 2595 2597 2599 2598 2596 2638 
2619 2639 2618 1693 1676 1694 1677 1711 1695 
1712 1748 20 60 1730 1713 40 1731 1749 
80 100 1785 1802 120 140 1767 1803 180 
1820 1838 160 200 1821 220 260 1839 240 
1857 280 1875 300 1893 181 1911 340 320 
1947 360 380 2036 1929 2018 1965 2072 1983 
2054 2001 2019 2108 2090 2055 2126 2144 2037 
2162 2180 2091 2073 2216 2234 2198 2109 2127 
2252 2145 2270 2269 2305 2288 2306 2287 2342 
2341 2324 2323 2376 2395 2359 2358 2741 2760 
2761 2740 2762 2765 2763 2764 2767 2768 2766 
2769 2770 2772 2773 2771 2774 2775 2776 2777 
2781 2778 2779 2780 2782 2784 2783 2785 2789 
2786 2788 2787 2790 2792 2791 2793 2797 2795 
2794 2796 1200 1101 1220 1081 1082 1260 1240 
1121 1141 1161 1280 1300 1201 1320 1181 1221 
1241 1340 1360 1261 1400 1380 1281 1301 1440 
1420 1321 1480 1341 1460 1361 1381 1520 1500 
1580 1421 1401 1540 1560 1461 1620 1441 1600 
1640 1481 1501 0 1521 1561 1541 1581 1601 
1582 1602 1562 1641 1622 1 1621 1642 41 
22 2 21 42 82 61 81 62 101 
121 141 122 102 162 161 142 202 221 
201 182 222 242 241 261 301 262 281 
400 282 420 302 440 321 341 460 361 
381 480 520 401 421 500 540 441 560 
461 580 600 501 620 481 2163 660 640 
2181 2199 700 680 2217 2360 720 2253 2235 
740 2377 2271 2378 2396 800 840 780 761 
2307 2325 2289 860 2361 2343 781 880 2379 
1020 900 920 2397 940 960 1060 1080 980 
941 1000 1100 1001 1120 961 1140 1040 1160 
1041 1061 1180 1043 1042 1062 1023 1063 1064 
1103 1083 1102 1142 1123 1122 1143 1182 1183 
1163 1162 1202 1222 1223 1203 1262 1243 1263 
1242 1283 1302 1282 1303 1342 1322 1343 1323 
1383 1363 1382 1362 1402 1422 1423 1403 1442 
1463 1443 1462 1502 1503 1482 1483 1543 1542 
1522 1523 1563 1583 1603 1623 1643 1644 3 
23 24 4 44 43 63 64 83 104 
103 84 124 163 144 143 164 123 183 
184 203 204 223 243 244 224 283 263 
284 264 323 342 322 303 343 362 382 
363 403 423 402 422 383 443 463 462 
442 502 483 482 503 541 522 521 523 
542 562 561 581 582 601 622 621 602 
661 641 642 760 681 701 662 682 820 
721 722 702 741 762 742 782 821 802 
801 783 842 861 822 841 862 901 881 
882 902 921 923 922 963 942 962 943 
981 982 1022 1002 1021 1025 1024 1045 1044 
1065 1085 1084 1124 1104 1125 1105 1165 1164 
1145 1144 1184 1204 1224 1205 1185 1264 1245 
1265 1244 1225 1304 1285 1305 1284 1325 1344 
1324 1345 1364 1365 1385 1384 1425 1404 1405 
1424 1465 1445 1464 1444 1504 1484 1505 1485 
1545 1524 1544 1525 1564 1585 1565 1584 1624 
1625 1604 1605 25 5 1645 66 65 46 
45 86 106 105 85 145 125 146 126 
206 165 205 186 185 166 245 226 246 
225 266 285 265 305 325 304 324 344 
364 365 345 385 384 404 405 424 425 
444 445 464 484 465 485 505 524 543 
504 525 544 564 563 583 604 584 603 
624 644 643 623 683 684 663 664 724 
703 723 704 744 764 765 743 763 785 
784 804 803 843 844 824 823 864 885 
863 884 865 883 924 903 905 925 904 
965 964 944 945 1004 983 984 1005 1003 
1027 1046 1047 1026 1087 1067 1066 1086 1127 
1106 1107 1126 1146 1166 1147 1167 1186 1187 
1207 1206 1226 1246 1247 1227 1286 1266 1287 
1306 1267 1307 1346 1347 1326 1327 1366 1386 
1387 1367 1426 1427 1407 1406 1447 1446 1466 
1467 1506 1486 1487 1507 1527 1546 1547 1526 
1567 1586 1566 1587 1607 1626 1627 1606 1646 
7 1647 6 47 67 26 27 87 107 
147 127 148 168 187 188 167 207 247 
248 228 227 208 268 286 267 287 327 
307 326 306 347 366 367 346 407 406 
387 386 427 446 447 426 466 487 486 
467 526 506 527 507 545 546 567 566 
565 547 585 586 606 605 625 646 645 
626 685 686 666 665 725 706 705 726 
745 746 767 766 787 806 786 805 807 
845 827 847 846 826 825 866 887 867 
886 927 907 906 926 966 947 946 967 
986 985 987 1006 1007 1028 1029 1049 1048 
1088 1068 1069 1089 1108 1109 1129 1128 1149 
1168 1169 1148 1189 1209 1208 1188 1228 1248 
1249 1229 1268 1289 1288 1269 1309 1308 1329 
1328 1389 1349 1388 1368 1348 1369 1428 1408 
1409 1429 1448 1449 1468 1469 1488 1489 1509 
1508 1548 1549 1528 1529 1589 1588 1569 1568 
1609 1629 1628 1608 8 1649 1648 9 29 
69 68 49 48 28 109 89 88 108 
128 149 129 190 169 189 209 230 229 
210 249 250 288 269 289 309 329 308 
328 349 368 348 369 389 409 408 388 
429 449 428 448 488 469 489 468 509 
529 508 528 548 569 568 549 587 609 
608 588 589 607 648 649 628 627 629 
647 669 668 667 688 689 687 707 727 
728 708 729 709 769 768 747 749 748 
788 789 808 809 828 829 848 849 889 
869 868 888 909 929 908 928 969 948 
968 949 1009 988 989 1008 1050 1030 1051 
1031 1090 1070 1071 1091 1110 1111 1130 1131 
1171 1150 1170 1151 1190 1191 1210 1211 1230 
1231 1250 1251 1290 1271 1291 1270 1330 1310 
1351 1311 1331 1350 1391 1371 1370 1390 1431 
1430 1411 1410 1471 1451 1470 1450 1491 1490 
1511 1510 1550 1551 1531 1530 1590 1570 1571 
1591 1630 1631 1610 1611 10 1651 1650 11 
51 70 30 71 31 50 90 111 110 
91 131 130 151 150 171 191 170 211 
231 251 271 252 270 290 291 311 310 
331 330 350 370 351 371 410 411 390 
391 430 431 451 450 490 471 491 470 
510 530 531 511 571 570 550 551 590 
610 591 611 651 630 631 650 670 691 
671 690 711 731 730 710 751 750 770 
771 811 791 790 810 851 831 850 830 
870 871 891 890 910 930 931 911 970 
950 971 951 1011 1010 991 990 1032 1052 
1053 1033 1093 1072 1092 1073 1133 1132 1112 
1113 1173 1172 1152 1153 1193 1192 1212 1213 
1232 1233 1253 1252 1273 1272 1293 1292 1313 
1312 1353 1333 1332 1352 1372 1373 1392 1393 
1432 1413 1433 1412 1473 1453 1472 1452 1492 
1513 1512 1493 1533 1552 1553 1532 1573 1593 
1572 1592 1613 1612 1633 1632 13 12 1652 
1653 52 72 73 53 32 33 93 112 
113 92 132 133 152 153 173 193 192 
172 213 212 233 232 253 273 272 292 
293 312 333 332 313 372 373 352 353 
413 393 392 412 453 433 432 452 473 
493 472 492 533 532 512 513 573 552 
572 553 593 592 613 612 633 632 653 
652 672 693 673 692 732 713 712 733 
753 772 773 752 793 813 812 792 832 
852 853 833 892 873 872 893 912 913 
933 932 952 972 973 953 1012 992 1013 
993 1054 1035 1034 1055 1075 1094 1095 1074 
1114 1134 1135 1115 1174 1175 1154 1155 1195 
1194 1214 1235 1215 1275 1234 1274 1255 1254 
1295 1294 1314 1315 1354 1355 1335 1334 1374 
1375 1394 1395 1435 1414 1415 1434 1455 1474 
1475 1454 1495 1514 1515 1494 1534 1554 1535 
1555 1595 1575 1574 1594 1634 1655 1614 1615 
1635 34 35 14 15 1654 54 55 75 
74 95 114 115 94 155 154 135 134 
175 174 195 194 255 214 215 235 234 
275 274 294 295 254 314 315 334 335 
354 374 355 375 414 395 394 415 454 
455 434 435 475 474 494 495 515 514 
535 534 555 575 554 574 595 615 594 
614 654 634 655 635 694 674 695 675 
715 735 734 714 775 754 774 755 814 
794 815 795 854 835 855 834 895 874 
894 875 914 915 934 935 954 975 974 
955 994 995 1015 1014 1037 1057 1077 1036 
1056 1076 1097 1117 1096 1157 1116 1137 1156 
1136 1177 1197 1196 1176 1217 1236 1216 1237 
1276 1256 1257 1277 1317 1296 1297 1316 1336 
1356 1357 1337 1376 1397 1377 1396 1417 1436 
1437 1416 1476 1456 1477 1457 1497 1537 1516 
1496 1517 1557 1577 1556 1536 1617 1596 1616 
1597 1576 1656 1636 1637 1657 16 17 37 
36 57 76 56 77 117 96 97 116 
136 157 156 137 177 217 176 196 197 
236 256 237 216 257 276 297 296 277 
317 316 337 336 376 356 377 357 416 
417 396 397 437 436 457 456 476 477 
496 497 537 517 516 536 577 556 576 
557 597 617 616 596 657 656 637 636 
696 676 697 677 717 716 736 737 756 
777 776 757 797 817 796 816 857 836 
856 837 897 896 876 877 916 917 937 
936 976 956 977 957 997 1016 996 1017 
1058 1199 1078 1219 1239 1118 1259 1098 1158 
1279 1299 1138 1178 1198 1339 1319 1359 1218 
1379 1238 1419 1399 1278 1258 1298 1439 1459 
1318 1499 1479 1358 1338 1378 1398 1539 1519 
1559 1418 1438 1599 1458 1579 1478 1639 1619 
1498 1659 1518 19 1538 59 1578 39 1558 
1598 1618 79 99 1658 139 119 1638 179 
18 159 38 78 199 219 58 259 279 
239 118 98 138 178 299 158 319 339 
218 198 359 238 258 399 379 298 419 
278 439 479 338 459 318 519 358 398 
378 499 539 438 559 418 599 458 478 
579 639 498 518 619 659 558 679 538 
719 699 578 598 638 739 759 618 658 
678 799 779 698 819 839 718 859 879 
758 738 899 798 778 919 939 838 959 
818 878 858 999 979 1019 898 1059 918 
1039 1099 938 958 1079 978 1119 1139 998 
1159 1179 1018 1038 2398 2400 2401 2399 2404 
2403 2405 2402 2406 2408 2409 2407 2413 2410 
2412 2411 2415 2417 2414 2416 2418 2419 2420 
2421 2424 2423 2426 2427 2422 2425 2430 2431 
2428 2429 2435 2434 2433 2432 2439 2436 2438 
2437 2442 2441 2443 2440 2446 2447 2444 2445 
2451 2449 2450 2448 2452 2454 2455 2453 2459 
2457 2458 2456 2463 2461 2460 2462 2466 2465 
2464 2467 2468 2469 2470 2471 2473 2472 2474 
2475 2477 2476 2481 2479 2480 2478 2482 2483 
2484 2485 2487 2488 2486 2489 2490 2491 2492 
2493 2497 2496 2495 2494 2498 2501 2499 2500 
2504 2505 2502 2503 2509 2508 2507 2506 2511 
2510 2513 2512 2514 2515 2516 2517 2518 2519 
2521 2520 2523 2524 2525 2522 2526 2529 2528 
2527 2530 2531 2532 2533 2534 2535 2536 2537 
2538 2539 2542 2541 2543 2540 2544 2545 2546 
2547 2548 2549 2550 2551 2555 2552 2553 2554 
2558 2556 2557 2559 2560 2561 2562 2563 
FIELD FieldData 7
r 3 2798 float
-0.5375 -0.4625 0 -0.5375 -0.4875 0 -0.5125 -0.4625 0 
-0.5125 -0.4875 0 -0.487805 -0.4875 0 -0.463415 -0.4875 0 
-0.463415 -0.4625 0 -0.487805 -0.4625 0 -0.439024 -0.4875 0 
-0.414634 -0.4625 0 -0.414634 -0.4875 0 -0.439024 -0.4625 0 
-0.365854 -0.4875 0 -0.390244 -0.4625 0 -0.365854 -0.4625 0 
-0.390244 -0.4875 0 -0.341463 -0.4875 0 -0.317073 -0.4625 0 
-0.317073 -0.4875 0 -0.341463 -0.4625 0 -0.292683 -0.4625 0 
-0.268293 -0.4875 0 -0.292683 -0.4875 0 -0.268293 -0.4625 0 
-0.219512 -0.4875 0 -0.243902 -0.4875 0 -0.243902 -0.4625 0 
-0.219512 -0.4625 0 -0.170732 -0.4875 0 -0.170732 -0.4625 0 
-0.195122 -0.4875 0 -0.195122 -0.4625 0 -0.121951 -0.4625 0 
-0.146341 -0.4875 0 -0.146341 -0.4625 0 -0.121951 -0.4875 0 
-0.0731707 -0.4875 0 -0.097561 -0.4875 0 -0.097561 -0.4625 0 
-0.0731707 -0.4625 0 -0.0487805 -0.4625 0 -1.86265e-08 -0.4625 0 
-1.86265e-08 -0.4875 0 -0.0243903 -0.4625 0 -0.0243903 -0.4875 0 
-0.0487805 -0.4875 0 0.0487805 -0.4875 0 0.0243902 -0.4875 0 
0.0243902 -0.4625 0 0.0487805 -0.4625 0 0.0731707 -0.4625 0 
0.097561 -0.4875 0 0.097561 -0.4625 0 0.0731707 -0.4875 0 
0.146341 -0.4625 0 0.146341 -0.4875 0 0.121951 -0.4625 0 
0.121951 -0.4875 0 0.170732 -0.4875 0 0.195122 -0.4625 0 
0.195122 -0.4875 0 0.170732 -0.4625 0 0.219512 -0.4875 0 
0.243902 -0.4625 0 0.243902 -0.4875 0 0.219512 -0.4625 0 
0.268293 -0.4875 0 0.292683 -0.4875 0 0.292683 -0.4625 0 
0.268293 -0.4625 0 0.317073 -0.4875 0 0.341463 -0.4875 0 
0.341463 -0.4625 0 0.317073 -0.4625 0 0.365854 -0.4625 0 
0.365854 -0.4875 0 0.390244 -0.4625 0 0.390244 -0.4875 0 
0.439024 -0.4625 0 0.439024 -0.4875 0 0.414634 -0.4625 0 
0.414634 -0.4875 0 0.487805 -0.4625 0 0.487805 -0.4875 0 
0.463415 -0.4625 0 0.463415 -0.4875 0 0.5375 -0.4625 0 
0.5375 -0.4875 0 0.5125 -0.4875 0 0.5125 -0.4625 0 
-0.5125 -0.4125 0 -0.5375 -0.4375 0 -0.5375 -0.4125 0 
-0.5125 -0.4375 0 -0.487933 -0.412077 0 -0.487916 -0.437304 0 
-0.463638 -0.411848 0 -0.463547 -0.437194 0 -0.41515 -0.437213 0 
-0.439499 -0.411794 0 -0.439332 -0.437205 0 -0.415429 -0.411813 0 
-0.366965 -0.412248 0 -0.366598 -0.43735 0 -0.390925 -0.437304 0 
-0.39128 -0.412068 0 -0.317676 -0.437458 0 -0.317887 -0.412584 0 
-0.34249 -0.412501 0 -0.342172 -0.437443 0 -0.293212 -0.41273 0 
-0.29314 -0.437531 0 -0.268533 -0.412667 0 -0.268608 -0.437503 0 
-0.218927 -0.413034 0 -0.243792 -0.412877 0 -0.219422 -0.43764 0 
-0.244058 -0.437581 0 -0.194023 -0.413026 0 -0.169148 -0.412986 0 
-0.170115 -0.437624 0 -0.194752 -0.437639 0 -0.145479 -0.43766 0 
-0.14428 -0.41307 0 -0.120811 -0.437663 0 -0.119381 -0.413084 0 
-0.0961501 -0.437661 0 -0.0696267 -0.413074 0 -0.0714984 -0.437666 0 
-0.0944949 -0.413072 0 -0.0447732 -0.413065 0 -0.0468529 -0.437668 0 
-0.0199481 -0.413055 0 -0.0222183 -0.437672 0 0.0270059 -0.437669 0 
0.00484765 -0.413038 0 0.00240252 -0.437671 0 0.0296078 -0.413013 0 
0.0789983 -0.412949 0 0.0761565 -0.437656 0 0.0515913 -0.437665 0 
0.0543247 -0.412985 0 0.125217 -0.437632 0 0.149711 -0.437622 0 
0.128199 -0.412862 0 0.103624 -0.412907 0 0.100699 -0.437645 0 
0.152718 -0.412814 0 0.177177 -0.412764 0 0.19861 -0.437603 0 
0.174177 -0.437613 0 0.225895 -0.412643 0 0.247355 -0.437589 0 
0.201569 -0.412703 0 0.223001 -0.437592 0 0.25016 -0.412603 0 
0.271675 -0.437586 0 0.27436 -0.412551 0 0.298477 -0.412468 0 
0.29595 -0.437574 0 0.346438 -0.412277 0 0.322507 -0.412386 0 
0.320171 -0.437558 0 0.344336 -0.437535 0 0.392413 -0.437452 0 
0.370259 -0.412107 0 0.368413 -0.43748 0 0.393978 -0.41201 0 
0.4402 -0.43737 0 0.441045 -0.411693 0 0.4176 -0.411865 0 
0.416353 -0.437419 0 0.488288 -0.437853 0 0.488329 -0.412852 0 
0.464058 -0.437432 0 0.4645 -0.411999 0 0.5375 -0.4125 0 
0.5375 -0.4375 0 0.5125 -0.4375 0 0.5125 -0.4125 0 
-0.5125 -0.3625 0 -0.5375 -0.3625 0 -0.5125 -0.3875 0 
-0.5375 -0.3875 0 -0.463699 -0.361038 0 -0.48794 -0.361558 0 
-0.487937 -0.386833 0 -0.46366 -0.386465 0 -0.439711 -0.360693 0 
-0.439574 -0.386296 0 -0.415859 -0.360769 0 -0.415592 -0.386338 0 
-0.39147 -0.386827 0 -0.39178 -0.361605 0 -0.367113 -0.387201 0 
-0.367373 -0.362222 0 -0.342558 -0.387655 0 -0.317923 -0.363262 0 
-0.317836 -0.387858 0 -0.342743 -0.362905 0 -0.268218 -0.388001 0 
-0.293015 -0.363535 0 -0.293027 -0.388079 0 -0.268126 -0.363446 0 
-0.21821 -0.38866 0 -0.243294 -0.388413 0 -0.217758 -0.364471 0 
-0.243049 -0.36415 0 -0.168049 -0.388568 0 -0.167307 -0.364289 0 
-0.193108 -0.388638 0 -0.192489 -0.3644 0 -0.116883 -0.36451 0 
-0.117903 -0.388718 0 -0.142992 -0.388703 0 -0.142124 -0.364496 0 
-0.0665528 -0.364387 0 -0.0928429 -0.388679 0 -0.0916825 -0.364414 0 
-0.0678182 -0.388673 0 -0.0428154 -0.388638 0 -0.0178586 -0.388592 0 
-0.0414509 -0.364319 0 -0.0164012 -0.364214 0 0.00857713 -0.364115 0 
0.0070481 -0.388541 0 0.0319053 -0.388471 0 0.033498 -0.363988 0 
0.056699 -0.388392 0 0.0831109 -0.363682 0 0.0814275 -0.388304 0 
0.0583477 -0.363841 0 0.107785 -0.363503 0 0.130672 -0.388093 0 
0.106088 -0.388203 0 0.132361 -0.363308 0 0.155174 -0.387977 0 
0.17959 -0.387851 0 0.181217 -0.362887 0 0.156838 -0.363101 0 
0.229709 -0.362473 0 0.203922 -0.387718 0 0.228176 -0.387598 0 
0.205507 -0.362675 0 0.253803 -0.362265 0 0.276423 -0.387348 0 
0.277772 -0.362005 0 0.25235 -0.387488 0 0.300386 -0.387174 0 
0.325365 -0.361438 0 0.349008 -0.361108 0 0.347997 -0.386769 0 
0.324247 -0.386996 0 0.301625 -0.361717 0 0.396015 -0.360453 0 
0.372556 -0.360717 0 0.395177 -0.386309 0 0.37163 -0.386489 0 
0.418587 -0.385977 0 0.442205 -0.359095 0 0.441728 -0.385579 0 
0.419285 -0.359828 0 0.464959 -0.359891 0 0.464798 -0.386124 0 
0.488421 -0.387675 0 0.488418 -0.362411 0 0.5375 -0.3875 0 
0.5125 -0.3875 0 0.5125 -0.3625 0 0.5375 -0.3625 0 
-0.5375 -0.3125 0 -0.5125 -0.3375 0 -0.5125 -0.3125 0 
-0.5375 -0.3375 0 -0.463717 -0.309973 0 -0.487908 -0.310972 0 
-0.46372 -0.335544 0 -0.487936 -0.336265 0 -0.440035 -0.308882 0 
-0.416191 -0.335074 0 -0.439867 -0.334903 0 -0.416519 -0.309259 0 
-0.367796 -0.312574 0 -0.367632 -0.337335 0 -0.392435 -0.311317 0 
-0.392131 -0.336421 0 -0.342899 -0.338238 0 -0.342925 -0.313687 0 
-0.317984 -0.338767 0 -0.317904 -0.314378 0 -0.268029 -0.338973 0 
-0.292839 -0.314674 0 -0.267788 -0.314586 0 -0.292993 -0.33907 0 
-0.242384 -0.316262 0 -0.216614 -0.316688 0 -0.242806 -0.340091 0 
-0.217291 -0.340475 0 -0.165627 -0.315936 0 -0.166567 -0.340087 0 
-0.190984 -0.316289 0 -0.191845 -0.340287 0 -0.14131 -0.340402 0 
-0.140312 -0.316402 0 -0.114835 -0.316504 0 -0.115942 -0.340444 0 
-0.0906096 -0.340255 0 -0.089375 -0.31619 0 -0.064087 -0.316025 0 
-0.0653971 -0.340179 0 -0.0402263 -0.340088 0 -0.0150952 -0.339908 0 
-0.0388797 -0.315923 0 -0.0136808 -0.315675 0 0.00993877 -0.339739 0 
0.0114225 -0.315396 0 0.0348921 -0.339553 0 0.0363968 -0.31513 0 