# vtk DataFile Version 4.0
vtk output
ASCII
DATASET POLYDATA
FIELD FieldData 4
domain 1 3 string
domain_min:-20|-15
domain_max:20|15
cell_size:0.05

variables 1 2 string
dt:0.000372678
T:2.01235

constants 1 10 string
xsize:2
ysize:1
csize:0.05
dx:0.0238095
h:0.025
rho0:1000
mass:0.566894
g:1|0
c:13.4164
CFL:0.2

functions 1 8 string
time:T=(T+dt)
continuity:rho_dot=((-(rho*sph_D00(v,mass,rho,Wp52220)))+(((0.1*c)*h)*sph_L00(rho,mass,rho,Wp52220)))
irho:rho=(rho+int1((rho_dot,dt))
EOS:p=(((c^2)*(rho-rho0))+10000)
euler:a=if((gid,(0*v),(((-((1/rho)*sph_G11(p,mass,rho,Wp52220)))+(0.01*sph_L00(v,mass,rho,Wp52220)))+g))
vel:v=(v+int1((a,dt))
pos:r=(r+int1((v,dt))
new_dt:dt=(CFL*min((sqrt(((h/fmax(magnitude((a)))),(h/c)))

POINTS 2798 float
-0.5125 -0.4875 0 -0.5125 -0.4625 0 -0.5375 -0.4875 0 
-0.5375 -0.4625 0 -0.487805 -0.4875 0 -0.463415 -0.4625 0 
-0.487805 -0.4625 0 -0.463415 -0.4875 0 -0.414634 -0.4875 0 
-0.439024 -0.4625 0 -0.414634 -0.4625 0 -0.439024 -0.4875 0 
-0.365854 -0.4625 0 -0.365854 -0.4875 0 -0.390244 -0.4875 0 
-0.390244 -0.4625 0 -0.317073 -0.4875 0 -0.317073 -0.4625 0 
-0.341463 -0.4875 0 -0.341463 -0.4625 0 -0.268293 -0.4625 0 
-0.268293 -0.4875 0 -0.292683 -0.4625 0 -0.292683 -0.4875 0 
-0.243902 -0.4625 0 -0.243902 -0.4875 0 -0.219512 -0.4625 0 
-0.219512 -0.4875 0 -0.170732 -0.4625 0 -0.170732 -0.4875 0 
-0.195122 -0.4625 0 -0.195122 -0.4875 0 -0.146341 -0.4875 0 
-0.121951 -0.4875 0 -0.121951 -0.4625 0 -0.146341 -0.4625 0 
-0.0731707 -0.4875 0 -0.097561 -0.4625 0 -0.0731707 -0.4625 0 
-0.097561 -0.4875 0 -0.0243903 -0.4875 0 -0.0243903 -0.4625 0 
-1.86265e-08 -0.4625 0 -0.0487805 -0.4875 0 -0.0487805 -0.4625 0 
-1.86265e-08 -0.4875 0 0.0243902 -0.4875 0 0.0487805 -0.4875 0 
0.0487805 -0.4625 0 0.0243902 -0.4625 0 0.0731707 -0.4625 0 
0.0731707 -0.4875 0 0.097561 -0.4875 0 0.097561 -0.4625 0 
0.146341 -0.4625 0 0.121951 -0.4625 0 0.121951 -0.4875 0 
0.146341 -0.4875 0 0.195122 -0.4875 0 0.170732 -0.4875 0 
0.195122 -0.4625 0 0.170732 -0.4625 0 0.243902 -0.4875 0 
0.219512 -0.4625 0 0.243902 -0.4625 0 0.219512 -0.4875 0 
0.292683 -0.4875 0 0.268293 -0.4625 0 0.268293 -0.4875 0 
0.292683 -0.4625 0 0.317073 -0.4875 0 0.341463 -0.4625 0 
0.341463 -0.4875 0 0.317073 -0.4625 0 0.365854 -0.4875 0 
0.390244 -0.4875 0 0.365854 -0.4625 0 0.390244 -0.4625 0 
0.414634 -0.4875 0 0.439024 -0.4875 0 0.414634 -0.4625 0 
0.439024 -0.4625 0 0.487805 -0.4625 0 0.463415 -0.4625 0 
0.463415 -0.4875 0 0.487805 -0.4875 0 0.5125 -0.4875 0 
0.5375 -0.4875 0 0.5125 -0.4625 0 0.5375 -0.4625 0 
-0.5125 -0.4375 0 -0.5375 -0.4125 0 -0.5125 -0.4125 0 
-0.5375 -0.4375 0 -0.488098 -0.436894 0 -0.488741 -0.410685 0 
-0.463815 -0.437656 0 -0.465176 -0.412587 0 -0.41902 -0.412332 0 
-0.442138 -0.407553 0 -0.417586 -0.438027 0 -0.44077 -0.435255 0 
-0.372769 -0.410406 0 -0.396489 -0.411083 0 -0.370117 -0.436517 0 
-0.393197 -0.437186 0 -0.301651 -0.437767 0 -0.3492 -0.40941 0 
-0.301789 -0.412332 0 -0.326297 -0.410195 0 -0.347701 -0.436446 0 
-0.325014 -0.436409 0 -0.257431 -0.437395 0 -0.279256 -0.434451 0 
-0.258771 -0.410997 0 -0.280475 -0.404742 0 -0.23417 -0.436903 0 
-0.211075 -0.436664 0 -0.235301 -0.410949 0 -0.21225 -0.410091 0 
-0.188979 -0.411176 0 -0.164701 -0.436823 0 -0.165496 -0.41109 0 
-0.187965 -0.437196 0 -0.10099 -0.411086 0 -0.14131 -0.437719 0 
-0.121806 -0.402464 0 -0.120192 -0.433141 0 -0.142172 -0.411108 0 
-0.0532153 -0.437261 0 -0.075666 -0.436013 0 -0.0553366 -0.409711 0 
-0.0987137 -0.438078 0 -0.0783065 -0.410006 0 -0.0327798 -0.413618 0 
-0.00646874 -0.436425 0 -0.0291292 -0.437404 0 -0.00052989 -0.413091 0 
0.0470139 -0.410771 0 0.0408264 -0.436382 0 0.0230998 -0.411928 0 
0.0177511 -0.438246 0 0.0713277 -0.413164 0 0.0883074 -0.438112 0 
0.0639443 -0.437554 0 0.0968786 -0.414432 0 0.123406 -0.413276 0 
0.147684 -0.411288 0 0.113063 -0.437515 0 0.137217 -0.437632 0 
0.196418 -0.412313 0 0.160316 -0.436274 0 0.183087 -0.437077 0 
0.17243 -0.41065 0 0.221189 -0.414813 0 0.20679 -0.438059 0 
0.232028 -0.438035 0 0.249501 -0.414274 0 0.270401 -0.40608 0 
0.291369 -0.418665 0 0.256615 -0.436814 0 0.279733 -0.438505 0 
0.310934 -0.407106 0 0.307795 -0.438376 0 0.333256 -0.413658 0 
0.330915 -0.436303 0 0.355104 -0.439475 0 0.35463 -0.404017 0 
0.3873 -0.440855 0 0.388871 -0.409752 0 0.368717 -0.422872 0 
0.441248 -0.421853 0 0.421018 -0.408407 0 0.425903 -0.441027 0 
0.40625 -0.42814 0 0.488784 -0.438739 0 0.457324 -0.440597 0 
0.472938 -0.422667 0 0.454658 -0.403237 0 0.491269 -0.407281 0 
0.5125 -0.4375 0 0.5375 -0.4125 0 0.5125 -0.4125 0 
0.5375 -0.4375 0 -0.5375 -0.3625 0 -0.5375 -0.3875 0 
-0.5125 -0.3875 0 -0.5125 -0.3625 0 -0.464364 -0.387812 0 
-0.48889 -0.38427 0 -0.482833 -0.362817 0 -0.450088 -0.370403 0 
-0.431004 -0.385002 0 -0.424246 -0.358842 0 -0.407743 -0.384994 0 
-0.369635 -0.367359 0 -0.35099 -0.351523 0 -0.382474 -0.38684 0 
-0.352895 -0.386313 0 -0.398128 -0.362347 0 -0.334615 -0.372343 0 
-0.318208 -0.387876 0 -0.307281 -0.360736 0 -0.277255 -0.363769 0 
-0.294305 -0.382959 0 -0.264223 -0.382895 0 -0.217275 -0.383793 0 
-0.216498 -0.357674 0 -0.241262 -0.38601 0 -0.241059 -0.361531 0 
-0.19307 -0.359824 0 -0.16851 -0.360451 0 -0.169851 -0.385318 0 
-0.193706 -0.385365 0 -0.106821 -0.35365 0 -0.106914 -0.381114 0 
-0.146946 -0.353646 0 -0.128475 -0.371818 0 -0.146689 -0.384667 0 
-0.0838291 -0.358185 0 -0.0608942 -0.383456 0 -0.08467 -0.384475 0 
-0.0597675 -0.358661 0 -0.0387172 -0.383806 0 -0.00224728 -0.377958 0 
-0.0244001 -0.365514 0 -0.0164595 -0.397148 0 0.0436442 -0.385581 0 
0.0186541 -0.388274 0 0.00247759 -0.353272 0 0.0251257 -0.363159 0 
0.0503795 -0.3609 0 0.0980853 -0.367421 0 0.0734666 -0.363876 0 
0.0931466 -0.390717 0 0.0682224 -0.388425 0 0.147448 -0.387849 0 
0.128942 -0.370477 0 0.113911 -0.350971 0 0.118375 -0.390824 0 
0.185232 -0.367312 0 0.154654 -0.363099 0 0.172351 -0.38617 0 
0.20001 -0.389944 0 0.231324 -0.394521 0 0.238163 -0.363328 0 
0.20493 -0.352801 0 0.216879 -0.374407 0 0.257968 -0.350103 0 
0.253221 -0.384754 0 0.294518 -0.358999 0 0.272051 -0.370252 0 
0.287175 -0.388838 0 0.33367 -0.386175 0 0.309975 -0.381474 0 
0.317581 -0.356386 0 0.342876 -0.36645 0 0.365933 -0.385592 0 
0.392074 -0.389263 0 0.369508 -0.363082 0 0.395878 -0.366882 0 
0.445033 -0.383344 0 0.425184 -0.365516 0 0.418628 -0.388125 0 
0.441647 -0.351235 0 0.463029 -0.366708 0 0.489786 -0.371625 0 
0.476448 -0.389996 0 0.5375 -0.3875 0 0.5375 -0.3625 0 
0.5125 -0.3875 0 0.5125 -0.3625 0 -0.5375 -0.3375 0 
-0.5125 -0.3375 0 -0.5375 -0.3125 0 -0.5125 -0.3125 0 
-0.490534 -0.340663 0 -0.470153 -0.325763 0 -0.452292 -0.312367 0 
-0.488789 -0.310994 0 -0.461126 -0.349388 0 -0.407765 -0.338283 0 
-0.43942 -0.339887 0 -0.427113 -0.320302 0 -0.405549 -0.309057 0 
-0.385371 -0.320894 0 -0.361074 -0.304792 0 -0.380119 -0.344142 0 
-0.358187 -0.328291 0 -0.326693 -0.346403 0 -0.334634 -0.321879 0 
-0.304752 -0.305725 0 -0.308385 -0.327943 0 -0.252667 -0.32268 0 
-0.276007 -0.322972 0 -0.289417 -0.342139 0 -0.259274 -0.34781 0 
-0.2814 -0.300357 0 -0.204745 -0.332916 0 -0.219576 -0.312642 0 
-0.241458 -0.301768 0 -0.231337 -0.335694 0 -0.157766 -0.330037 0 
-0.166429 -0.306078 0 -0.180601 -0.335901 0 -0.189579 -0.310495 0 
-0.12617 -0.341414 0 -0.136666 -0.318233 0 -0.113542 -0.315247 0 
-0.0958741 -0.330149 0 -0.0785567 -0.308342 0 -0.0718616 -0.3339 0 
-0.0501197 -0.324274 0 -0.0284245 -0.31643 0 -0.0161124 -0.338407 0 
-0.00284462 -0.314558 0 -0.0401981 -0.347757 0 0.0413262 -0.312884 0 
0.0145285 -0.331404 0 0.0205465 -0.304076 0 0.0361768 -0.338939 0 
0.0922451 -0.30746 0 0.0597953 -0.333426 0 0.0820157 -0.341387 0 
0.0701868 -0.31164 0 0.138678 -0.343404 0 0.14767 -0.306718 0 
0.117568 -0.300849 0 0.101312 -0.329805 0 0.125915 -0.32273 0 
0.192682 -0.332065 0 0.171952 -0.346434 0 0.179738 -0.312527 0 
0.158048 -0.327039 0 0.236423 -0.306759 0 0.247452 -0.327965 0 
0.226344 -0.34088 0 0.214715 -0.319473 0 0.269931 -0.316635 0 
0.27966 -0.33889 0 0.292998 -0.307009 0 0.32506 -0.330326 0 
0.318457 -0.305682 0 0.34248 -0.305762 0 0.344497 -0.34398 0 
0.30197 -0.330854 0 0.374002 -0.306272 0 0.356673 -0.323632 0 
0.374737 -0.342196 0 0.390375 -0.325758 0 0.442799 -0.325201 0 
0.405604 -0.347441 0 0.430263 -0.302479 0 0.406083 -0.308276 0 
0.420684 -0.330826 0 0.490144 -0.321977 0 0.487544 -0.347144 0 
0.465087 -0.340946 0 0.46634 -0.315155 0 0.5375 -0.3375 0 
0.5125 -0.3125 0 0.5125 -0.3375 0 0.5375 -0.3125 0 
-0.5125 -0.2875 0 -0.5125 -0.2625 0 -0.5375 -0.2625 0 
-0.5375 -0.2875 0 -0.489004 -0.259158 0 -0.487873 -0.285355 0 
-0.466634 -0.26245 0 -0.465544 -0.291422 0 -0.434615 -0.294373 0 
-0.445368 -0.273177 0 -0.421505 -0.26324 0 -0.411557 -0.285765 0 
-0.391421 -0.272035 0 -0.381564 -0.293653 0 -0.365844 -0.267661 0 
-0.349476 -0.283592 0 -0.344408 -0.250858 0 -0.304766 -0.253 0 
-0.309947 -0.281207 0 -0.330707 -0.299463 0 -0.328851 -0.268301 0 
-0.287344 -0.274306 0 -0.261541 -0.289876 0 -0.269153 -0.260546 0 
-0.217442 -0.25783 0 -0.226321 -0.281294 0 -0.247005 -0.268545 0 
-0.204393 -0.292214 0 -0.195257 -0.268706 0 -0.157372 -0.270048 0 
-0.176046 -0.282794 0 -0.133637 -0.265902 0 -0.103128 -0.270331 0 
-0.122895 -0.288581 0 -0.145501 -0.294434 0 -0.0979997 -0.295751 0 
-0.0560356 -0.271564 0 -0.0814015 -0.252916 0 -0.057481 -0.299352 0 
-0.0780312 -0.278112 0 -0.011332 -0.264611 0 -0.0130317 -0.291343 0 
-0.0356948 -0.289962 0 -0.0337413 -0.261573 0 0.0460116 -0.257022 0 
0.00921093 -0.282276 0 0.020285 -0.25979 0 0.0366952 -0.281409 0 
0.0679974 -0.262262 0 0.0797875 -0.28214 0 0.0564816 -0.290945 0 
0.0983541 -0.257219 0 0.146381 -0.252639 0 0.139206 -0.285493 0 
0.125243 -0.267018 0 0.103857 -0.281363 0 0.186003 -0.255754 0 
0.19187 -0.277925 0 0.161539 -0.269984 0 0.16993 -0.291388 0 
0.239122 -0.254234 0 0.214132 -0.264416 0 0.20222 -0.299364 0 
0.24668 -0.275784 0 0.223681 -0.286158 0 0.270583 -0.266214 0 
0.283908 -0.285781 0 0.259367 -0.295644 0 0.299105 -0.263704 0 
0.312662 -0.283206 0 0.339091 -0.280941 0 0.325122 -0.259009 0 
[...]
POINT_DATA 2798
SCALARS id float
LOOKUP_TABLE default
2620 2621 2600 2601 2640 2643 2641 2642 2646 
2645 2647 2644 2651 2650 2648 2649 2654 2655 
2652 2653 2659 2658 2657 2656 2661 2660 2663 
2662 2667 2666 2665 2664 2668 2670 2671 2669 
2674 2673 2675 2672 2678 2679 2681 2676 2677 
2680 2682 2684 2685 2683 2687 2686 2688 2689 
2693 2691 2690 2692 2696 2694 2697 2695 2700 
2699 2701 2698 2704 2703 2702 2705 2706 2709 
2708 2707 2710 2712 2711 2713 2714 2716 2715 
2717 2721 2719 2718 2720 2722 2742 2723 2743 
2622 2603 2623 2602 1660 1697 1678 1696 1768 
1750 1732 1714 1840 1823 1804 1786 1894 1913 
1967 1949 1858 1876 1930 1912 1966 1985 1948 
1984 2093 2111 2129 2038 2147 2020 2183 2056 
2184 2074 2165 2128 2110 2219 2092 2201 2237 
2164 2146 2218 2310 2200 2291 2182 2329 2254 
2236 2328 2330 2331 2272 2290 2350 2309 2308 
2347 2349 2327 2326 2365 2366 2364 2346 2348 
2368 2345 2363 2344 2362 2370 2380 2371 2383 
2367 2390 2382 2386 2384 2381 2385 2389 2387 
2724 2745 2725 2744 2605 2604 2624 2625 1715 
1661 1679 1787 1805 1824 1841 1859 1895 1822 
1877 1842 1914 1931 1950 2004 1986 2003 2112 
2075 2057 2002 2131 2167 2148 2130 2221 2202 
2185 2203 2166 2239 2238 2220 2257 2256 2274 
2275 2255 2311 2273 2293 2292 2312 2300 2315 
2332 2313 2333 2317 2283 2316 2335 2336 2334 
2352 2351 2318 2248 2353 2195 2354 1461 2284 
2369 2372 2337 1620 340 2267 2090 0 1101 
2391 2213 2231 1341 280 2355 2388 2746 2747 
2726 2727 2606 2626 2607 2627 1662 1716 1769 
1698 1733 1843 1806 1825 1862 1861 1878 1860 
1896 1932 1933 2023 2005 2058 2040 2022 2021 
2041 2094 2076 2077 2039 2186 2150 2149 2113 
2222 2204 2223 2240 2241 2258 2259 2277 2294 
2278 2276 2298 2295 2297 2296 2265 2314 2282 
2299 2230 2018 2212 2247 2125 2142 2266 1441 
21 1521 1481 1875 1362 100 60 1161 1460 
1541 1181 1122 20 1540 1201 1281 1141 1221 
1420 1440 1520 1400 320 2301 2373 1183 2748 
2729 2728 2749 2628 2629 2609 2608 1717 1680 
1752 1734 1788 1751 1807 1844 1880 1879 1897 
1915 1934 1969 1987 1968 1951 2024 2059 2060 
2097 2096 2078 2095 2114 2169 2132 2205 2207 
2206 2168 2224 2225 2191 2242 2208 2261 2279 
2260 2243 2263 2280 2262 2246 2194 2264 2281 
2054 1893 1929 2072 2229 1911 1838 1581 1522 
180 1946 120 1361 140 40 1301 1561 1600 
1928 1820 1910 160 1580 1040 1261 1241 1766 
1729 1121 1081 1001 1767 1873 1321 2731 2750 
2730 2751 2631 2630 2610 2611 1753 1735 1771 
1663 1789 1881 1770 1898 1826 1935 1953 1916 
1971 1988 1952 1970 2043 2042 2006 2061 2062 
2080 2079 2098 2116 2099 2133 2081 2115 2190 
2151 2170 2188 2187 2189 2173 2156 2172 2174 
2140 2139 2209 2245 2244 2226 2193 2227 2228 
2211 2124 2175 2177 2159 2036 2035 2176 1821 
2107 1857 1803 1839 1998 1982 1731 1 1837 
1963 462 1926 900 1892 1802 1942 1784 1713 
1749 1560 1853 1712 1818 1891 1300 2753 2732 
2752 2733 2633 2613 2612 2632 1808 1790 1718 
1699 1882 1899 1863 1900 1901 1954 1917 1918 
1972 1936 2007 1990 2008 1989 2044 2027 2025 
2026 2045 2010 2063 2028 2064 2046 1993 2029 
2082 2134 2047 2117 2155 2065 2100 2152 2135 
2101 2136 2171 2153 2123 2120 2154 2192 2138 
2157 2158 2089 2210 2052 2141 2071 2105 2070 
2053 2068 2087 2106 2000 2085 2050 2034 1981 
2017 2088 1964 2016 1980 1693 1856 1874 820 
1979 762 1783 1120 542 1909 1220 1819 1675 
2734 2755 2754 2735 2614 2634 2635 2615 1772 
1681 1845 1827 1864 1846 1902 1883 1919 1937 
1938 1973 1955 1956 1903 2009 1974 1939 1991 
1992 1924 1976 1977 1923 1958 1975 1905 1817 
2030 1959 1835 1871 1941 1852 2011 1781 1711 
1816 2083 2012 1995 1925 1994 2048 2137 1798 
1705 1780 1723 1689 1960 2121 2119 2122 2118 
2066 2084 2104 2015 2014 2103 2049 2033 2102 
2051 2069 2032 1908 1785 1999 1890 1962 80 
1709 1945 1997 1180 1080 1889 1676 2325 2145 
2737 2757 2756 2736 2617 2636 2616 2637 1682 
1719 1664 1700 1736 1865 1809 1754 1866 1884 
1847 1920 1738 220 1885 1829 1867 1848 1957 
1792 1868 1921 1849 1811 1940 1831 1904 1922 
1887 1739 1813 1870 1722 1758 1869 1794 1834 
1832 1886 1741 1775 1850 1727 1776 1670 1795 
1851 1777 2215 1742 1815 1779 1740 1906 1797 
1673 2013 1708 1944 2357 1745 1100 1746 1978 
1799 1814 2086 1762 2031 1961 1888 2067 2323 
1996 2377 1927 1140 1710 2306 2288 2397 2758 
2759 2738 2739 2565 2566 2567 2564 2571 2569 
2568 2570 2573 2572 2574 2575 2577 2576 2578 
2579 2583 2581 2582 2580 2586 2584 2587 2585 
2590 2588 2589 2591 2595 2594 2593 2592 2598 
2599 2597 2596 2619 2639 2638 2618 1665 1701 
1683 1666 1102 1720 1828 1737 941 1062 1810 
1791 1773 1601 1401 1755 1702 1667 1021 1684 
2160 1222 1703 1262 1677 861 1830 1685 1669 
2338 1793 1812 402 1774 260 980 2392 1721 
1757 2374 1686 2356 1756 2250 1142 843 1704 
2320 404 1061 1282 681 2232 2251 343 2234 
940 2214 2303 1760 1283 1543 2361 1674 1691 
1796 1726 1778 1744 2376 1671 1833 2375 1759 
2359 1943 2198 1695 1728 1725 800 2760 2761 
2740 2741 2762 2765 2763 2764 2767 2768 2766 
2769 2771 2773 2772 2770 2774 2777 2775 2776 
2779 2780 2781 2778 2783 2784 2782 2785 2788 
2786 2789 2787 2790 2793 2792 2791 2797 2794 
2796 2795 1690 2378 1060 2055 1500 162 341 
1544 1263 520 1801 1730 780 2289 1836 680 
1765 1380 421 2342 460 2217 1800 720 2091 
223 1200 1747 1041 1748 482 1242 881 802 
1872 1320 1907 1260 862 822 921 561 1764 
263 1854 1782 281 1692 420 541 1643 981 
221 363 1668 560 620 2285 1202 1694 481 
1340 540 101 1240 701 2178 362 2319 2181 
381 682 422 501 423 124 521 641 721 
600 321 920 264 442 901 262 240 2143 
2249 401 1000 621 463 722 742 783 403 
224 801 1182 382 760 703 1523 962 2126 
883 1947 1322 903 1502 1342 1402 1023 723 
1043 1687 1621 804 961 2252 1184 1022 2343 
1763 1724 1707 2179 2396 2271 1582 601 2394 
1303 1123 41 1761 640 1743 1223 1688 2019 
1542 461 1020 1672 161 2287 806 2341 2339 
2199 761 2270 2360 163 2037 2304 2307 2321 
2180 1480 1855 2108 2196 300 1422 904 1105 
1483 984 1124 766 1004 1145 845 2197 1045 
1064 2109 1302 1564 1983 1143 200 1706 1383 
1641 1602 964 1363 660 141 1264 1224 360 
42 1065 143 81 1344 2268 2324 480 1443 
261 2340 61 1404 1385 1563 83 500 860 
22 182 1423 1364 1403 2269 2127 3 1345 
1384 1280 2286 1360 2379 104 2322 2001 1160 
43 700 441 121 302 1605 380 1604 122 
4 123 1965 84 241 1585 102 1603 103 
1485 1565 1525 62 1504 1505 740 282 361 
6 105 580 85 301 242 222 283 27 
5 323 304 184 203 383 661 782 960 
364 781 522 245 1381 342 582 284 922 
1421 841 1243 602 2302 741 1082 1003 803 
923 2216 622 2358 1203 643 201 823 1382 
763 1162 744 2305 181 1044 1063 983 1204 
864 2235 2161 963 1083 1103 884 982 1185 
1042 902 2393 2395 844 2253 2233 786 840 
1144 2163 566 604 842 665 546 705 724 
605 584 506 626 526 785 1024 784 646 
805 745 725 746 687 924 765 1106 1501 
925 905 1482 1086 985 1104 1562 1025 1164 
1463 1225 1442 945 1125 907 965 2162 1244 
1085 986 1066 1424 1087 1047 1343 1503 1366 
1462 1186 1006 967 23 987 1323 1304 1227 
1265 1365 1067 400 1207 1524 82 440 63 
1644 1622 1187 1642 1325 1324 1346 1286 1266 
1623 2 1545 1305 1425 1584 1405 1583 142 
44 1465 144 1406 1426 1486 1466 25 1484 
1446 26 1624 1645 1547 64 24 45 244 
1506 880 1586 1567 183 324 344 443 165 
86 66 243 305 322 325 583 186 942 
285 147 821 702 683 563 1002 365 662 
444 366 562 502 503 405 642 664 385 
326 543 544 863 1640 943 663 523 623 
684 625 464 743 1163 603 764 704 882 
825 644 524 645 564 485 347 425 446 
585 505 465 545 426 525 466 486 547 
507 487 685 606 586 686 527 666 885 
607 787 706 627 865 944 866 826 886 
1084 867 807 906 767 887 788 868 848 
827 728 849 847 748 689 869 1046 888 
966 946 926 1126 1165 1005 1205 947 1026 
908 948 927 1007 1027 928 1088 1226 1284 
2073 1245 1206 1166 2144 1128 1285 1127 1069 
1246 1109 1464 1167 1147 1208 1148 1228 1267 
1444 1306 1387 1209 1247 1188 1229 1386 1347 
1367 1368 1445 1407 1307 1625 1327 1427 1428 
1546 1467 1566 1487 1447 1527 1448 1468 1526 
1646 204 65 46 1627 166 303 1647 202 
164 225 7 47 67 146 205 185 483 
206 125 126 226 581 266 286 345 187 
424 265 227 384 246 306 208 386 287 
346 228 209 247 229 484 624 307 327 
565 824 504 406 210 289 269 288 308 
250 328 309 445 348 329 407 368 387 
427 367 447 448 467 408 388 468 488 
449 469 567 508 587 548 568 726 647 
588 549 846 608 667 747 628 727 589 
707 668 648 629 688 649 669 708 808 
768 729 670 709 749 829 828 769 889 
850 789 809 890 851 870 830 909 910 
968 891 1068 949 1107 988 1146 1028 1108 
1008 1089 989 1009 1048 1049 1029 1050 1110 
1030 1090 1070 1091 1129 1130 1111 1149 1168 
1131 1189 1287 1326 1248 1210 1268 1288 1308 
1328 1348 1309 1329 1388 1408 1409 1369 1349 
1606 1488 1449 1429 1626 1507 1508 1548 1587 
1528 1607 1529 1568 1509 1588 1628 1549 1608 
1569 8 1589 1648 87 1609 28 167 145 
106 127 88 48 49 107 68 148 207 
108 69 168 89 128 189 188 129 170 
150 267 169 149 268 248 249 191 230 
172 211 270 232 231 251 310 271 290 
291 369 330 389 350 349 370 390 428 
409 430 410 429 411 450 470 489 509 
490 510 528 491 550 511 569 529 551 
570 530 590 571 591 609 610 611 631 
651 630 650 671 690 691 730 731 710 
711 770 751 771 750 811 810 791 790 
871 831 852 892 929 911 912 872 930 
931 950 969 990 971 951 970 991 1010 
1011 1012 1031 1032 1071 1052 1051 1072 1112 
1113 1092 1093 1132 1150 1151 1169 1190 1230 
1170 1211 1249 1289 1231 1269 1250 1310 1291 
1311 1290 1270 1330 1350 1331 1370 1371 1389 
1351 1469 1410 1489 1430 1470 1471 1450 1490 
1530 1510 1491 1511 1551 1531 1570 1550 1629 
1649 1571 1591 1610 1590 9 1630 1631 1611 
1650 30 29 10 11 70 51 50 31 
91 109 71 130 90 110 131 111 133 
171 132 190 152 151 192 214 193 194 
173 234 213 233 212 253 272 252 273 
293 312 292 311 351 331 352 332 372 
392 371 391 451 432 431 412 452 471 
472 493 512 513 492 553 532 531 552 
573 572 593 592 612 633 652 613 632 
653 673 672 693 692 713 732 733 712 
752 772 753 773 812 792 793 813 832 
854 833 853 893 874 873 894 913 933 
932 914 953 952 973 972 1013 992 1034 
993 1054 1033 1073 1053 1074 1094 1114 1115 
1134 1133 1153 1152 1171 1192 1212 1191 1172 
1232 1253 1233 1251 1252 1271 1293 1292 1272 
1313 1332 1312 1333 1352 1372 1390 1353 1391 
1411 1431 1412 1451 1432 1452 1473 1472 1512 
1492 1493 1533 1552 1513 1532 1592 1573 1572 
1553 1613 1612 1632 1593 1633 1653 1651 1652 
52 33 13 12 32 92 72 73 53 
93 112 155 113 134 174 175 153 154 
235 296 275 295 315 255 314 254 375 
294 274 354 353 313 395 333 415 414 
373 394 455 434 393 435 413 454 433 
475 453 473 495 515 474 514 534 555 
494 533 554 575 574 615 594 635 595 
614 675 634 655 695 654 674 715 694 
734 755 714 735 774 775 754 795 794 
835 815 814 896 916 855 834 935 875 
975 955 895 995 915 934 1015 954 974 
1055 1035 994 1014 1176 1095 1075 1216 1136 
1155 1175 1194 1195 1135 1154 1174 1235 1173 
1214 1193 1213 1234 1275 1255 1254 1274 1315 
1295 1294 1335 1273 1355 1314 1395 1354 1375 
1334 1394 1415 1393 1374 1373 1414 1455 1434 
1413 1392 1435 1495 1453 1475 1454 1433 1474 
1515 1494 1535 1514 1575 1534 1554 1555 1595 
1574 1615 1594 1635 1655 1614 1634 1654 35 
15 14 55 34 75 54 74 115 95 
94 114 135 176 156 215 195 196 276 
557 335 577 334 597 396 617 355 657 
637 416 374 436 677 697 456 717 737 
476 496 536 516 757 777 797 535 556 
817 576 857 837 596 636 897 877 616 
937 917 676 656 716 977 696 957 736 
1037 756 1017 997 776 796 1057 816 1077 
1117 1097 836 856 936 1137 1177 876 976 
1197 1217 956 996 1257 1016 1237 1297 1056 
1277 1036 1096 1076 1337 1116 1317 1357 1377 
1156 1157 1397 1417 1196 1437 1457 1236 1477 
1215 1256 1497 1276 1517 1537 1557 1316 1296 
1597 1577 1356 1336 1396 1617 1637 1376 1416 
1436 1657 1456 1476 37 57 17 1496 77 
1516 97 1556 1536 117 137 157 1576 1596 
177 1616 197 217 1656 237 1636 16 36 
297 277 317 56 76 337 357 96 397 
116 216 136 417 257 437 256 376 457 
236 336 497 377 477 316 356 537 517 
899 1218 919 1198 1258 939 1238 959 979 
999 1278 1298 1318 1338 1039 1019 1079 1358 
1059 1378 1398 1099 1418 1438 1139 1119 1478 
1458 1159 1179 1498 1518 1199 1219 1538 1259 
1239 1558 1299 1279 1578 1598 1618 1319 1638 
1339 1658 1379 18 38 1359 1399 1419 58 
98 1459 1439 78 1479 1519 138 158 1499 
118 1559 1539 198 178 218 1579 238 1599 
1619 258 1639 278 1659 298 19 318 338 
39 59 358 79 378 119 398 99 438 
418 139 159 458 498 179 199 478 518 
219 538 239 558 279 578 259 598 618 
319 299 359 658 638 339 399 379 698 
678 718 419 738 439 459 778 758 479 
499 798 818 519 858 559 539 838 878 
898 599 579 918 639 619 938 659 978 
679 958 998 1018 699 719 1038 739 759 
1058 779 1078 1098 799 1138 819 839 1118 
1158 1178 879 859 2400 2398 2401 2399 2404 
2402 2403 2405 2408 2409 2407 2406 2410 2412 
2413 2411 2417 2416 2415 2414 2420 2418 2419 
2421 2427 2425 2426 2422 2423 2424 2428 2431 
2430 2429 2432 2434 2433 2435 2436 2438 2439 
2437 2441 2443 2442 2440 2445 2444 2446 2447 
2451 2450 2449 2448 2455 2452 2454 2453 2459 
2457 2458 2456 2461 2462 2460 2463 2466 2467 
2465 2464 2471 2470 2469 2468 2474 2475 2472 
2473 2476 2481 2480 2478 2479 2477 2482 2483 
2484 2485 2487 2486 2488 2489 2493 2492 2490 
2491 2497 2496 2495 2494 2499 2498 2500 2501 
2504 2502 2505 2503 2507 2506 2508 2509 2511 
2512 2513 2510 2517 2515 2514 2516 2518 2520 
2521 2519 2522 2523 2524 2525 2527 2526 2528 
2529 2532 2533 2531 2530 2534 2535 2536 2537 
2538 2539 2542 2540 2543 2541 2547 2546 2544 
2545 2548 2549 2550 2551 2553 2554 2555 2552 
2558 2556 2557 2559 2560 2561 2562 2563 
FIELD FieldData 7
r 3 2798 float
-0.5125 -0.4875 0 -0.5125 -0.4625 0 -0.5375 -0.4875 0 
-0.5375 -0.4625 0 -0.487805 -0.4875 0 -0.463415 -0.4625 0 
-0.487805 -0.4625 0 -0.463415 -0.4875 0 -0.414634 -0.4875 0 
-0.439024 -0.4625 0 -0.414634 -0.4625 0 -0.439024 -0.4875 0 
-0.365854 -0.4625 0 -0.365854 -0.4875 0 -0.390244 -0.4875 0 
-0.390244 -0.4625 0 -0.317073 -0.4875 0 -0.317073 -0.4625 0 
-0.341463 -0.4875 0 -0.341463 -0.4625 0 -0.268293 -0.4625 0 
-0.268293 -0.4875 0 -0.292683 -0.4625 0 -0.292683 -0.4875 0 
-0.243902 -0.4625 0 -0.243902 -0.4875 0 -0.219512 -0.4625 0 
-0.219512 -0.4875 0 -0.170732 -0.4625 0 -0.170732 -0.4875 0 
-0.195122 -0.4625 0 -0.195122 -0.4875 0 -0.146341 -0.4875 0 
-0.121951 -0.4875 0 -0.121951 -0.4625 0 -0.146341 -0.4625 0 
-0.0731707 -0.4875 0 -0.097561 -0.4625 0 -0.0731707 -0.4625 0 
-0.097561 -0.4875 0 -0.0243903 -0.4875 0 -0.0243903 -0.4625 0 
-1.86265e-08 -0.4625 0 -0.0487805 -0.4875 0 -0.0487805 -0.4625 0 
-1.86265e-08 -0.4875 0 0.0243902 -0.4875 0 0.0487805 -0.4875 0 
0.0487805 -0.4625 0 0.0243902 -0.4625 0 0.0731707 -0.4625 0 
0.0731707 -0.4875 0 0.097561 -0.4875 0 0.097561 -0.4625 0 
0.146341 -0.4625 0 0.121951 -0.4625 0 0.121951 -0.4875 0 
0.146341 -0.4875 0 0.195122 -0.4875 0 0.170732 -0.4875 0 
0.195122 -0.4625 0 0.170732 -0.4625 0 0.243902 -0.4875 0 
0.219512 -0.4625 0 0.243902 -0.4625 0 0.219512 -0.4875 0 
0.292683 -0.4875 0 0.268293 -0.4625 0 0.268293 -0.4875 0 
0.292683 -0.4625 0 0.317073 -0.4875 0 0.341463 -0.4625 0 
0.341463 -0.4875 0 0.317073 -0.4625 0 0.365854 -0.4875 0 
0.390244 -0.4875 0 0.365854 -0.4625 0 0.390244 -0.4625 0 
0.414634 -0.4875 0 0.439024 -0.4875 0 0.414634 -0.4625 0 
0.439024 -0.4625 0 0.487805 -0.4625 0 0.463415 -0.4625 0 
0.463415 -0.4875 0 0.487805 -0.4875 0 0.5125 -0.4875 0 
0.5375 -0.4875 0 0.5125 -0.4625 0 0.5375 -0.4625 0 
-0.5125 -0.4375 0 -0.5375 -0.4125 0 -0.5125 -0.4125 0 
-0.5375 -0.4375 0 -0.488098 -0.436894 0 -0.488741 -0.410685 0 
-0.463815 -0.437656 0 -0.465176 -0.412587 0 -0.41902 -0.412332 0 
-0.442138 -0.407553 0 -0.417586 -0.438027 0 -0.44077 -0.435255 0 
-0.372769 -0.410406 0 -0.396489 -0.411083 0 -0.370117 -0.436517 0 
-0.393197 -0.437186 0 -0.301651 -0.437767 0 -0.3492 -0.40941 0 
-0.301789 -0.412332 0 -0.326297 -0.410195 0 -0.347701 -0.436446 0 
-0.325014 -0.436409 0 -0.257431 -0.437395 0 -0.279256 -0.434451 0 
-0.258771 -0.410997 0 -0.280475 -0.404742 0 -0.23417 -0.436903 0 
-0.211075 -0.436664 0 -0.235301 -0.410949 0 -0.21225 -0.410091 0 
-0.188979 -0.411176 0 -0.164701 -0.436823 0 -0.165496 -0.41109 0 
-0.187965 -0.437196 0 -0.10099 -0.411086 0 -0.14131 -0.437719 0 
-0.121806 -0.402464 0 -0.120192 -0.433141 0 -0.142172 -0.411108 0 
-0.0532153 -0.437261 0 -0.075666 -0.436013 0 -0.0553366 -0.409711 0 
-0.0987137 -0.438078 0 -0.0783065 -0.410006 0 -0.0327798 -0.413618 0 
-0.00646874 -0.436425 0 -0.0291292 -0.437404 0 -0.00052989 -0.413091 0 
0.0470139 -0.410771 0 0.0408264 -0.436382 0 0.0230998 -0.411928 0 
0.0177511 -0.438246 0 0.0713277 -0.413164 0 0.0883074 -0.438112 0 
0.0639443 -0.437554 0 0.0968786 -0.414432 0 0.123406 -0.413276 0 
0.147684 -0.411288 0 0.113063 -0.437515 0 0.137217 -0.437632 0 
0.196418 -0.412313 0 0.160316 -0.436274 0 0.183087 -0.437077 0 
0.17243 -0.41065 0 0.221189 -0.414813 0 0.20679 -0.438059 0 
0.232028 -0.438035 0 0.249501 -0.414274 0 0.270401 -0.40608 0 
0.291369 -0.418665 0 0.256615 -0.436814 0 0.279733 -0.438505 0 
0.310934 -0.407106 0 0.307795 -0.438376 0 0.333256 -0.413658 0 
0.330915 -0.436303 0 0.355104 -0.439475 0 0.35463 -0.404017 0 
0.3873 -0.440855 0 0.388871 -0.409752 0 0.368717 -0.422872 0 
0.441248 -0.421853 0 0.421018 -0.408407 0 0.425903 -0.441027 0 
0.40625 -0.42814 0 0.488784 -0.438739 0 0.457324 -0.440597 0 
0.472938 -0.422667 0 0.454658 -0.403237 0 0.491269 -0.407281 0 
0.5125 -0.4375 0 0.5375 -0.4125 0 0.5125 -0.4125 0 
0.5375 -0.4375 0 -0.5375 -0.3625 0 -0.5375 -0.3875 0 
-0.5125 -0.3875 0 -0.5125 -0.3625 0 -0.464364 -0.387812 0 
-0.48889 -0.38427 0 -0.482833 -0.362817 0 -0.450088 -0.370403 0 
-0.431004 -0.385002 0 -0.424246 -0.358842 0 -0.407743 -0.384994 0 
-0.369635 -0.367359 0 -0.35099 -0.351523 0 -0.382474 -0.38684 0 
-0.352895 -0.386313 0 -0.398128 -0.362347 0 -0.334615 -0.372343 0 
-0.318208 -0.387876 0 -0.307281 -0.360736 0 -0.277255 -0.363769 0 
-0.294305 -0.382959 0 -0.264223 -0.382895 0 -0.217275 -0.383793 0 
-0.216498 -0.357674 0 -0.241262 -0.38601 0 -0.241059 -0.361531 0 
-0.19307 -0.359824 0 -0.16851 -0.360451 0 -0.169851 -0.385318 0 
-0.193706 -0.385365 0 -0.106821 -0.35365 0 -0.106914 -0.381114 0 
-0.146946 -0.353646 0 -0.128475 -0.371818 0 -0.146689 -0.384667 0 
-0.0838291 -0.358185 0 -0.0608942 -0.383456 0 -0.08467 -0.384475 0 
-0.0597675 -0.358661 0 -0.0387172 -0.383806 0 -0.00224728 -0.377958 0 
-0.0244001 -0.365514 0 -0.0164595 -0.397148 0 0.0436442 -0.385581 0 
0.0186541 -0.388274 0 0.00247759 -0.353272 0 0.0251257 -0.363159 0 
0.0503795 -0.3609 0 0.0980853 -0.367421 0 0.0734666 -0.363876 0 
0.0931466 -0.390717 0 0.0682224 -0.388425 0 0.147448 -0.387849 0 
0.128942 -0.370477 0 0.113911 -0.350971 0 0.118375 -0.390824 0 
0.185232 -0.367312 0 0.154654 -0.363099 0 0.172351 -0.38617 0 
0.20001 -0.389944 0 0.231324 -0.394521 0 0.238163 -0.363328 0 
0.20493 -0.352801 0 0.216879 -0.374407 0 0.257968 -0.350103 0 
0.253221 -0.384754 0 0.294518 -0.358999 0 0.272051 -0.370252 0 
0.287175 -0.388838 0 0.33367 -0.386175 0 0.309975 -0.381474 0 
0.317581 -0.356386 0 0.342876 -0.36645 0 0.365933 -0.385592 0 
0.392074 -0.389263 0 0.369508 -0.363082 0 0.395878 -0.366882 0 
0.445033 -0.383344 0 0.425184 -0.365516 0 0.418628 -0.388125 0 
0.441647 -0.351235 0 0.463029 -0.366708 0 0.489786 -0.371625 0 
0.476448 -0.389996 0 0.5375 -0.3875 0 0.5375 -0.3625 0 
0.5125 -0.3875 0 0.5125 -0.3625 0 -0.5375 -0.3375 0 
-0.5125 -0.3375 0 -0.5375 -0.3125 0 -0.5125 -0.3125 0 
-0.490534 -0.340663 0 -0.470153 -0.325763 0 -0.452292 -0.312367 0 
-0.488789 -0.310994 0 -0.461126 -0.349388 0 -0.407765 -0.338283 0 
-0.43942 -0.339887 0 -0.427113 -0.320302 0 -0.405549 -0.309057 0 
-0.385371 -0.320894 0 -0.361074 -0.304792 0 -0.380119 -0.344142 0 
-0.358187 -0.328291 0 -0.326693 -0.346403 0 -0.334634 -0.321879 0 
-0.304752 -0.305725 0 -0.308385 -0.327943 0 -0.252667 -0.32268 0 
-0.276007 -0.322972 0 -0.289417 -0.342139 0 -0.259274 -0.34781 0 
-0.2814 -0.300357 0 -0.204745 -0.332916 0 -0.219576 -0.312642 0 
-0.241458 -0.301768 0 -0.231337 -0.335694 0 -0.157766 -0.330037 0 
-0.166429 -0.306078 0 -0.180601 -0.335901 0 -0.189579 -0.310495 0 
-0.12617 -0.341414 0 -0.136666 -0.318233 0 -0.113542 -0.315247 0 
-0.0958741 -0.330149 0 -0.0785567 -0.308342 0 -0.0718616 -0.3339 0 
-0.0501197 -0.324274 0 -0.0284245 -0.31643 0 -0.0161124 -0.338407 0 
-0.00284462 -0.314558 0 -0.0401981 -0.347757 0 0.0413262 -0.312884 0 