# vtk DataFile Version 4.0
vtk output
ASCII
DATASET POLYDATA
FIELD FieldData 4
domain 1 3 string
domain_min:-20|-15
domain_max:20|15
cell_size:0.05

variables 1 2 string
dt:0.000372678
T:0.26163

constants 1 10 string
xsize:2
ysize:1
csize:0.05
dx:0.0238095
h:0.025
rho0:1000
mass:0.566894
g:1|0
c:13.4164
CFL:0.2

functions 1 8 string
time:T=(T+dt)
continuity:rho_dot=((-(rho*sph_D00(v,mass,rho,Wp52220)))+(((0.1*c)*h)*sph_L00(rho,mass,rho,Wp52220)))
irho:rho=(rho+int1((rho_dot,dt))
EOS:p=(((c^2)*(rho-rho0))+10000)
euler:a=if((gid,(0*v),(((-((1/rho)*sph_G11(p,mass,rho,Wp52220)))+(0.01*sph_L00(v,mass,rho,Wp52220)))+g))
vel:v=(v+int1((a,dt))
pos:r=(r+int1((v,dt))
new_dt:dt=(CFL*min((sqrt(((h/fmax(magnitude((a)))),(h/c)))

POINTS 2798 float
-0.5375 -0.4875 0 -0.5375 -0.4625 0 -0.5125 -0.4875 0 
-0.5125 -0.4625 0 -0.487805 -0.4875 0 -0.487805 -0.4625 0 
-0.463415 -0.4875 0 -0.463415 -0.4625 0 -0.414634 -0.4625 0 
-0.439024 -0.4875 0 -0.439024 -0.4625 0 -0.414634 -0.4875 0 
-0.390244 -0.4875 0 -0.365854 -0.4625 0 -0.390244 -0.4625 0 
-0.365854 -0.4875 0 -0.317073 -0.4625 0 -0.317073 -0.4875 0 
-0.341463 -0.4625 0 -0.341463 -0.4875 0 -0.268293 -0.4625 0 
-0.292683 -0.4625 0 -0.292683 -0.4875 0 -0.268293 -0.4875 0 
-0.219512 -0.4625 0 -0.243902 -0.4625 0 -0.243902 -0.4875 0 
-0.219512 -0.4875 0 -0.195122 -0.4875 0 -0.195122 -0.4625 0 
-0.170732 -0.4875 0 -0.170732 -0.4625 0 -0.121951 -0.4625 0 
-0.146341 -0.4875 0 -0.146341 -0.4625 0 -0.121951 -0.4875 0 
-0.097561 -0.4625 0 -0.097561 -0.4875 0 -0.0731707 -0.4625 0 
-0.0731707 -0.4875 0 -1.86265e-08 -0.4875 0 -1.86265e-08 -0.4625 0 
-0.0487805 -0.4625 0 -0.0243903 -0.4875 0 -0.0243903 -0.4625 0 
-0.0487805 -0.4875 0 0.0487805 -0.4875 0 0.0243902 -0.4875 0 
0.0243902 -0.4625 0 0.0487805 -0.4625 0 0.097561 -0.4625 0 
0.0731707 -0.4875 0 0.0731707 -0.4625 0 0.097561 -0.4875 0 
0.121951 -0.4875 0 0.121951 -0.4625 0 0.146341 -0.4875 0 
0.146341 -0.4625 0 0.195122 -0.4625 0 0.195122 -0.4875 0 
0.170732 -0.4625 0 0.170732 -0.4875 0 0.219512 -0.4875 0 
0.243902 -0.4625 0 0.243902 -0.4875 0 0.219512 -0.4625 0 
0.268293 -0.4625 0 0.268293 -0.4875 0 0.292683 -0.4625 0 
0.292683 -0.4875 0 0.317073 -0.4875 0 0.341463 -0.4875 0 
0.341463 -0.4625 0 0.317073 -0.4625 0 0.390244 -0.4625 0 
0.390244 -0.4875 0 0.365854 -0.4875 0 0.365854 -0.4625 0 
0.439024 -0.4625 0 0.439024 -0.4875 0 0.414634 -0.4625 0 
0.414634 -0.4875 0 0.487805 -0.4625 0 0.487805 -0.4875 0 
0.463415 -0.4625 0 0.463415 -0.4875 0 0.5375 -0.4875 0 
0.5375 -0.4625 0 0.5125 -0.4875 0 0.5125 -0.4625 0 
-0.5375 -0.4125 0 -0.5125 -0.4375 0 -0.5125 -0.4125 0 
-0.5375 -0.4375 0 -0.48804 -0.437517 0 -0.463578 -0.43739 0 
-0.487993 -0.412414 0 -0.463598 -0.412282 0 -0.439235 -0.412347 0 
-0.414822 -0.437485 0 -0.414835 -0.412489 0 -0.439216 -0.43744 0 
-0.365844 -0.412614 0 -0.365922 -0.437519 0 -0.390382 -0.437513 0 
-0.390361 -0.412577 0 -0.316928 -0.437564 0 -0.316683 -0.412766 0 
-0.341293 -0.412674 0 -0.341445 -0.437535 0 -0.292032 -0.412779 0 
-0.267365 -0.412826 0 -0.292385 -0.437563 0 -0.267836 -0.437581 0 
-0.217961 -0.412895 0 -0.242672 -0.412871 0 -0.218685 -0.437607 0 
-0.243266 -0.437597 0 -0.194102 -0.43762 0 -0.168528 -0.412933 0 
-0.193245 -0.412917 0 -0.169516 -0.437631 0 -0.144933 -0.43764 0 
-0.143817 -0.412943 0 -0.120354 -0.437646 0 -0.119117 -0.412946 0 
-0.0957847 -0.437652 0 -0.0697705 -0.412936 0 -0.0712258 -0.437655 0 
-0.094433 -0.412943 0 -0.0205232 -0.412907 0 -0.0451326 -0.412923 0 
-0.0221509 -0.437658 0 -0.0466803 -0.437657 0 0.0286 -0.412866 0 
0.0023604 -0.437658 0 0.00405519 -0.412888 0 0.0268518 -0.437657 0 
0.0775821 -0.412818 0 0.075769 -0.437654 0 0.0513217 -0.437656 0 
0.0531094 -0.412842 0 0.100193 -0.437652 0 0.102018 -0.412793 0 
0.124594 -0.43765 0 0.126417 -0.412767 0 0.148972 -0.437648 0 
0.150779 -0.412742 0 0.175105 -0.412717 0 0.197661 -0.437644 0 
0.199396 -0.412691 0 0.173327 -0.437647 0 0.221973 -0.437642 0 
0.246265 -0.43764 0 0.247874 -0.412639 0 0.223652 -0.412664 0 
0.270539 -0.437637 0 0.272063 -0.41261 0 0.296217 -0.412583 0 
0.294793 -0.437631 0 0.31903 -0.437629 0 0.344436 -0.412535 0 
0.320342 -0.412561 0 0.343253 -0.437627 0 0.391651 -0.437617 0 
0.368496 -0.412506 0 0.367459 -0.43762 0 0.392518 -0.412474 0 
0.439962 -0.437622 0 0.440441 -0.412459 0 0.416489 -0.412411 0 
0.415807 -0.437596 0 0.464433 -0.412583 0 0.488422 -0.412749 0 
0.464152 -0.43765 0 0.48844 -0.437852 0 0.5125 -0.4375 0 
0.5375 -0.4375 0 0.5125 -0.4125 0 0.5375 -0.4125 0 
-0.5375 -0.3875 0 -0.5375 -0.3625 0 -0.5125 -0.3625 0 
-0.5125 -0.3875 0 -0.487995 -0.3622 0 -0.463601 -0.361992 0 
-0.463633 -0.38714 0 -0.488016 -0.387314 0 -0.439297 -0.387264 0 
-0.414804 -0.362574 0 -0.414894 -0.387515 0 -0.439244 -0.362183 0 
-0.390401 -0.387686 0 -0.390251 -0.362843 0 -0.365841 -0.387772 0 
-0.365614 -0.363001 0 -0.34123 -0.387887 0 -0.316123 -0.363454 0 
-0.316546 -0.388059 0 -0.340911 -0.36318 0 -0.291806 -0.388092 0 
-0.266414 -0.363609 0 -0.267051 -0.388169 0 -0.29127 -0.363507 0 
-0.241534 -0.363727 0 -0.216632 -0.363774 0 -0.217464 -0.388287 0 
-0.242268 -0.388249 0 -0.166846 -0.363824 0 -0.167848 -0.388337 0 
-0.191736 -0.363813 0 -0.192655 -0.388321 0 -0.117135 -0.363783 0 
-0.118275 -0.388333 0 -0.143053 -0.388342 0 -0.141976 -0.363813 0 
-0.0675614 -0.363671 0 -0.0687985 -0.388282 0 -0.0923279 -0.363734 0 
-0.0935218 -0.388312 0 -0.044109 -0.388243 0 -0.0194575 -0.388197 0 
-0.0428399 -0.363596 0 -0.0181665 -0.36351 0 0.0310258 -0.36332 0 
0.0064559 -0.363417 0 0.00515294 -0.388147 0 0.0297202 -0.388092 0 
0.0800059 -0.363119 0 0.0787204 -0.387977 0 0.0555426 -0.36322 0 
0.0542429 -0.388035 0 0.128775 -0.362913 0 0.103153 -0.387917 0 
0.104416 -0.363016 0 0.12754 -0.387857 0 0.153082 -0.362808 0 
0.17734 -0.362702 0 0.176182 -0.387734 0 0.151883 -0.387796 0 
0.225715 -0.362489 0 0.224655 -0.387608 0 0.200439 -0.387671 0 
0.248829 -0.387548 0 0.24983 -0.362378 0 0.201551 -0.362595 0 
0.273894 -0.362262 0 0.297912 -0.362157 0 0.297052 -0.387415 0 
0.272961 -0.387481 0 0.321884 -0.362057 0 0.345803 -0.361939 0 
0.345113 -0.387298 0 0.321104 -0.387361 0 0.393469 -0.36167 0 
0.392991 -0.387141 0 0.369666 -0.361817 0 0.369078 -0.387227 0 
0.416844 -0.387024 0 0.417207 -0.361487 0 0.440669 -0.387087 0 
0.44091 -0.361557 0 0.464636 -0.361764 0 0.488421 -0.3875 0 
0.48842 -0.36215 0 0.464522 -0.387255 0 0.5375 -0.3625 0 
0.5125 -0.3625 0 0.5375 -0.3875 0 0.5125 -0.3875 0 
-0.5125 -0.3375 0 -0.5375 -0.3125 0 -0.5375 -0.3375 0 
-0.5125 -0.3125 0 -0.487983 -0.312021 0 -0.463598 -0.311714 0 
-0.48798 -0.337109 0 -0.463569 -0.336857 0 -0.439258 -0.312084 0 
-0.414721 -0.337686 0 -0.439198 -0.337132 0 -0.414797 -0.312828 0 
-0.365453 -0.313707 0 -0.390114 -0.338073 0 -0.390186 -0.313342 0 
-0.365405 -0.338322 0 -0.315615 -0.314595 0 -0.340612 -0.338579 0 
-0.315716 -0.338973 0 -0.340601 -0.314058 0 -0.265807 -0.339141 0 
-0.290562 -0.314643 0 -0.26556 -0.31473 0 -0.290753 -0.339033 0 
-0.240547 -0.314957 0 -0.215485 -0.315002 0 -0.240844 -0.339304 0 
-0.215854 -0.339351 0 -0.165441 -0.315 0 -0.165926 -0.339386 0 
-0.190448 -0.315012 0 -0.190882 -0.339385 0 -0.140995 -0.339348 0 
-0.116102 -0.339288 0 -0.115524 -0.314832 0 -0.14046 -0.314932 0 
-0.0664489 -0.339094 0 -0.0912512 -0.339201 0 -0.0658077 -0.314548 0 
-0.0906398 -0.314705 0 -0.0170122 -0.338837 0 -0.0163312 -0.314181 0 
-0.0410371 -0.314371 0 -0.0417021 -0.338971 0 0.00761861 -0.338694 0 
0.00830925 -0.31398 0 0.0321892 -0.338546 0 0.0328838 -0.313774 0 
0.0573941 -0.313565 0 0.0566998 -0.338395 0 0.0818431 -0.313355 0 
0.0811506 -0.338242 0 0.106233 -0.313146 0 0.130566 -0.312936 0 
0.105543 -0.338088 0 0.129879 -0.337934 0 0.179062 -0.312509 0 
0.154161 -0.337778 0 0.178389 -0.337621 0 0.154842 -0.312724 0 
0.202564 -0.337462 0 0.227324 -0.312067 0 0.203223 -0.31229 0 
0.226685 -0.3373 0 0.274756 -0.336967 0 0.251368 -0.311838 0 
0.27536 -0.311617 0 0.299295 -0.311409 0 0.250748 -0.337134 0 
0.298718 -0.33681 0 0.346455 -0.336473 0 0.346942 -0.310919 0 
0.323157 -0.311174 0 0.322621 -0.336652 0 0.370661 -0.310674 0 
0.394306 -0.31037 0 0.393933 -0.336067 0 0.37023 -0.336292 0 
0.441408 -0.310082 0 0.417889 -0.310065 0 0.441168 -0.335881 0 
0.417574 -0.335822 0 0.488457 -0.311168 0 0.464888 -0.310307 0 
0.464767 -0.336112 0 0.488437 -0.336703 0 0.5375 -0.3125 0 
0.5125 -0.3125 0 0.5125 -0.3375 0 0.5375 -0.3375 0 
-0.5375 -0.2875 0 -0.5375 -0.2625 0 -0.5125 -0.2625 0 
-0.5125 -0.2875 0 -0.46376 -0.261208 0 -0.46367 -0.286511 0 
-0.487997 -0.286906 0 -0.488014 -0.261745 0 -0.43941 -0.286973 0 
-0.439622 -0.261747 0 -0.415367 -0.262939 0 -0.41502 -0.28793 0 
-0.390916 -0.263771 0 -0.366227 -0.264528 0 -0.390462 -0.288589 0 
-0.365744 -0.289114 0 -0.341268 -0.265212 0 -0.340852 -0.289604 0 
-0.315776 -0.290318 0 -0.316079 -0.266138 0 -0.265577 -0.290342 0 
-0.290818 -0.266095 0 -0.265703 -0.265966 0 -0.290627 -0.290328 0 
-0.240538 -0.290659 0 -0.240637 -0.266394 0 -0.215414 -0.290721 0 
-0.215446 -0.266512 0 -0.190249 -0.266427 0 -0.190305 -0.290692 0 
-0.165247 -0.290661 0 -0.165134 -0.266356 0 -0.140216 -0.290564 0 
-0.115014 -0.266035 0 -0.115231 -0.290412 0 -0.140059 -0.266241 0 
-0.0651582 -0.265532 0 -0.0903133 -0.290238 0 -0.0654565 -0.29003 0 
-0.0900458 -0.265796 0 -0.0156101 -0.264917 0 -0.0406649 -0.289795 0 
-0.0159453 -0.289544 0 -0.0403446 -0.265233 0 0.0336298 -0.264257 0 
0.00904673 -0.26459 0 0.0332835 -0.289013 0 0.00870396 -0.289281 0 
0.0825906 -0.263593 0 0.0577967 -0.288744 0 0.0822474 -0.288475 0 
0.0581431 -0.263924 0 0.130972 -0.287937 0 0.106977 -0.263261 0 
0.131304 -0.26293 0 0.106639 -0.288207 0 0.179466 -0.287387 0 
0.155248 -0.287664 0 0.155578 -0.262596 0 0.179799 -0.262261 0 
0.203974 -0.261925 0 0.227733 -0.286821 0 0.203626 -0.287106 0 
0.228099 -0.26159 0 0.25217 -0.261251 0 0.251787 -0.286539 0 
0.275786 -0.286266 0 0.299714 -0.285976 0 0.276171 -0.260903 0 
0.300079 -0.260524 0 0.323898 -0.260114 0 0.32355 -0.28565 0 
0.34731 -0.285332 0 0.347667 -0.259739 0 0.39464 -0.284632 0 
[...]
POINT_DATA 2798
SCALARS id float
LOOKUP_TABLE default
2600 2601 2620 2621 2640 2641 2642 2643 2647 
2644 2645 2646 2648 2651 2649 2650 2655 2654 
2653 2652 2659 2657 2656 2658 2663 2661 2660 
2662 2664 2665 2666 2667 2671 2668 2669 2670 
2673 2672 2675 2674 2680 2681 2677 2678 2679 
2676 2684 2682 2683 2685 2689 2686 2687 2688 
2690 2691 2692 2693 2697 2696 2695 2694 2698 
2701 2700 2699 2703 2702 2705 2704 2706 2708 
2709 2707 2713 2712 2710 2711 2717 2716 2715 
2714 2721 2720 2719 2718 2742 2743 2722 2723 
2603 2622 2623 2602 1660 1678 1661 1679 1697 
1714 1715 1696 1751 1750 1732 1733 1786 1787 
1769 1768 1805 1823 1804 1822 1859 1841 1858 
1840 1876 1895 1877 1894 1912 1913 1930 1931 
1948 1967 1966 1949 2003 1985 2002 1984 2039 
2020 2021 2038 2075 2074 2056 2057 2092 2093 
2110 2111 2128 2129 2147 2164 2165 2146 2182 
2200 2201 2183 2218 2219 2237 2236 2254 2273 
2255 2272 2308 2291 2290 2309 2344 2345 2327 
2326 2363 2381 2362 2380 2724 2744 2725 2745 
2604 2605 2625 2624 1663 1681 1680 1662 1698 
1717 1716 1699 1734 1735 1752 1753 1770 1789 
1788 1771 1806 1825 1824 1807 1843 1861 1860 
1842 1897 1896 1879 1878 1933 1932 1914 1915 
1969 1968 1951 1950 1986 2004 1987 2005 2041 
2023 2022 2040 2077 2076 2059 2058 2113 2094 
2095 2112 2131 2149 2148 2130 2185 2184 2166 
2202 2203 2167 2221 2239 2238 2220 2257 2275 
2274 2256 2311 2310 2293 2292 2328 2329 2346 
2347 2365 2382 2383 2364 2747 2727 2746 2726 
2626 2607 2606 2627 1665 1683 1664 1682 1701 
1718 1700 1719 1755 1736 1737 1754 1791 1772 
1790 1773 1826 1809 1827 1808 1845 1863 1844 
1862 1899 1898 1881 1880 1916 1934 1935 1917 
1970 1952 1971 1953 2006 2007 1989 1988 2024 
2025 2042 2043 2061 2060 2079 2078 2097 2115 
2096 2114 2151 2132 2150 2133 2168 2187 2169 
2186 2222 2205 2223 2241 2204 2240 2276 2277 
2259 2258 2295 2313 2312 2294 2349 2331 2348 
2330 2385 2367 2366 2384 2749 2729 2728 2748 
2608 2609 2629 2628 1685 1684 1666 1667 1702 
1703 1721 1720 1739 1757 1738 1756 1775 1774 
1792 1793 1828 1811 1829 1810 1846 1847 1864 
1865 1883 1882 1900 1901 1918 1937 1936 1919 
1973 1954 1972 1955 2009 1990 2008 1991 2045 
2027 2044 2026 2081 2062 2080 2063 2116 2099 
2117 2098 2152 2134 2135 2153 2171 2188 2170 
2189 2207 2206 2224 2242 2225 2243 2261 2260 
2278 2279 2314 2296 2315 2297 2333 2351 2350 
2332 2386 2369 2387 2368 2751 2750 2730 2731 
2610 2611 2630 2631 1668 1686 1669 1687 1705 
1722 1704 1723 1758 1759 1740 1741 1794 1776 
1795 1777 1813 1831 1830 1812 1866 1848 1849 
1867 1884 1902 1903 1885 1921 1920 1939 1938 
1956 1974 1975 1957 1993 1992 2011 2010 2047 
2029 2028 2046 2065 2083 2082 2064 2101 2100 
2119 2118 2155 2136 2137 2154 2190 2191 2173 
2172 2208 2209 2227 2226 2244 2280 2262 2245 
2281 2263 2316 2298 2317 2299 2353 2352 2335 
2334 2389 2371 2370 2388 2733 2753 2732 2752 
2613 2612 2633 2632 1688 1689 1670 1671 1724 
1706 1707 1725 1743 1742 1760 1761 1796 1797 
1779 1778 1815 1814 1833 1832 1850 1868 1851 
1869 1887 1904 1905 1886 1941 1940 1923 1922 
1976 1977 1959 1958 2013 1994 2012 1995 2048 
2049 2030 2031 2067 2085 2084 2066 2120 2121 
2102 2103 2157 2139 2156 2138 2193 2174 2192 
2175 2210 2229 2228 2211 2247 2265 2246 2264 
2282 2283 2318 2319 2300 2301 2336 2337 2354 
2355 2390 2391 2373 2372 2754 2734 2755 2735 
2634 2635 2615 2614 1690 1672 1691 1673 1727 
1708 1726 1709 1763 1762 1745 1744 1799 1798 
1780 1781 1835 1834 1816 1817 1852 1871 1854 
1870 1853 1872 1890 1906 1889 1907 1888 1942 
1924 1943 1925 1979 1961 1960 1978 1996 1997 
2014 2015 2051 2033 2050 2032 2086 2068 2069 
2087 2105 2122 2104 2123 2158 2140 2141 2159 
2177 2194 2195 2176 2212 2231 2213 2230 2266 
2248 2249 2267 2302 2284 2303 2285 2320 2321 
2339 2338 2356 2393 2374 2392 2736 2757 2756 
2737 2637 2636 2617 2616 1693 1674 1675 1692 
1728 1729 1711 1710 1746 1747 1765 1764 1802 
1801 1782 1800 1783 1820 1836 1818 1837 1819 
1855 1873 1856 1892 1874 1908 1891 1909 1927 
1926 1944 1945 1981 1963 1980 1962 2016 1998 
1999 2017 2053 2035 2034 2052 2070 2089 2088 
2071 2106 2124 2125 2107 2161 2142 2160 2143 
2179 2196 2197 2178 2214 2232 2233 2215 2268 
2251 2250 2269 2305 2304 2286 2287 2358 2340 
2357 2322 2323 2375 2394 2376 2758 2738 2759 
2739 2565 2567 2566 2564 2571 2568 2569 2570 
2574 2572 2573 2575 2576 2577 2579 2578 2583 
2581 2580 2582 2585 2586 2587 2584 2588 2590 
2591 2589 2595 2594 2593 2592 2598 2596 2597 
2599 2619 2638 2618 2639 1677 1694 1676 1713 
1695 1712 1730 140 1731 1766 1748 180 200 
1749 1784 1767 220 1785 1803 240 1838 260 
1821 280 320 1857 1839 300 1910 1928 360 
1875 340 1911 1946 380 1964 1893 1929 1947 
1982 2000 1983 2018 2036 2054 1965 2090 2072 
2019 2001 2055 2108 2037 2126 2091 2144 2162 
2109 2073 2198 2180 2145 2127 2216 2234 2163 
2181 2199 2217 2270 2252 2306 2235 2288 2360 
2324 2342 2341 2359 2395 2396 2378 2377 2741 
2740 2760 2761 2762 2764 2763 2765 2768 2766 
2769 2767 2771 2772 2773 2770 2774 2776 2775 
2777 2781 2778 2780 2779 2785 2783 2784 2782 
2786 2787 2788 2789 2791 2790 2793 2792 2796 
2797 2794 2795 1221 1300 1320 1201 1261 1340 
1360 1241 1301 1380 1281 1400 1321 1420 1341 
1361 1440 1480 1460 1401 1381 1500 1520 1441 
1421 1540 1461 1481 1560 1521 1501 1580 1600 
1640 1620 1561 1541 0 1581 20 1601 40 
1641 60 1621 100 80 1 21 120 160 
61 41 121 81 101 142 161 141 122 
162 202 182 201 181 242 241 222 221 
282 262 281 261 400 322 321 302 301 
420 341 361 440 401 480 460 381 441 
421 520 500 461 560 481 501 540 580 
541 521 600 640 561 620 581 660 680 
621 601 641 700 661 720 760 681 740 
701 800 2271 721 2253 780 820 2307 840 
2289 880 860 2325 920 2343 900 2361 960 
2379 1020 940 2397 980 1000 1080 1001 1060 
1041 1100 1021 1040 1120 1140 1081 1061 1160 
1101 1200 1180 1121 1141 1220 1161 1240 1260 
1181 1280 1222 1223 1202 1203 1242 1263 1262 
1243 1283 1302 1282 1303 1343 1323 1342 1322 
1383 1362 1363 1382 1402 1423 1403 1422 1482 
1443 1463 1442 1462 1483 1502 1522 1503 1563 
1562 1543 1542 1523 1583 1603 1602 1582 1643 
1622 1623 1642 22 3 23 2 62 63 
42 43 83 103 102 82 123 143 163 
183 184 164 203 243 224 204 223 244 
284 263 283 264 303 323 304 343 342 
363 362 382 402 383 403 422 423 443 
442 462 483 463 502 482 522 523 503 
542 543 562 582 563 583 622 623 602 
603 663 642 662 643 682 683 702 703 
741 722 742 723 743 782 762 761 781 
763 802 821 822 801 842 841 862 861 
901 881 882 902 941 922 903 921 981 
942 962 961 1022 983 982 1003 1002 1043 
1063 1042 1062 1102 1103 1083 1082 1123 1143 
1122 1142 1183 1163 1182 1162 1224 1204 1225 
1205 1244 1265 1245 1264 1304 1285 1284 1305 
1345 1344 1324 1325 1365 1385 1364 1384 1425 
1405 1424 1404 1445 1464 1444 1465 1505 1485 
1484 1504 1545 1524 1525 1544 1565 1584 1585 
1564 1604 1625 1624 1644 1605 25 24 4 
5 1645 64 44 45 65 104 105 85 
84 145 124 125 144 165 185 205 226 
245 206 225 246 265 286 285 266 325 
324 305 345 344 365 364 385 384 405 
404 424 445 444 425 484 465 485 464 
524 525 504 505 545 564 544 565 584 
604 585 605 624 625 644 645 664 684 
704 685 665 705 724 744 725 765 745 
764 784 783 785 804 803 823 805 825 
824 845 844 843 863 864 884 883 885 
865 923 925 904 905 924 944 965 943 
964 945 963 1004 1005 985 984 1024 1023 
1045 1044 1064 1105 1104 1065 1085 1084 1124 
1145 1125 1144 1165 1185 1164 1184 1226 1227 
1206 1207 1266 1247 1267 1246 1306 1286 1307 
1287 1326 1347 1346 1327 1366 1386 1387 1367 
1427 1406 1426 1407 1466 1447 1467 1446 1487 
1507 1486 1506 1527 1526 1546 1547 1567 1587 
1586 1566 1607 1626 1606 1627 6 26 27 
7 1647 1646 47 66 67 46 106 107 
86 87 147 127 126 146 187 166 167 
186 207 227 247 267 287 268 288 306 
307 326 327 346 347 366 367 386 406 
387 407 447 446 427 426 467 486 487 
466 506 526 527 507 567 547 566 546 
586 607 587 606 627 646 626 647 666 
667 686 687 727 726 707 706 747 746 
766 767 786 806 807 787 846 826 847 
827 887 866 867 886 907 906 927 926 
947 967 966 946 987 1006 986 1007 1027 
1026 1047 1046 1025 1067 1066 1086 1087 1106 
1107 1127 1147 1146 1126 1186 1166 1167 1187 
1228 1209 1208 1229 1268 1269 1248 1249 1288 
1289 1309 1308 1329 1328 1349 1348 1369 1368 
1389 1388 1409 1408 1429 1428 1468 1448 1449 
1469 1488 1509 1489 1508 1529 1528 1548 1549 
1569 1568 1589 1588 1608 1609 1649 1648 1629 
1628 29 28 9 8 69 49 68 48 
108 89 109 88 148 128 149 129 168 
169 189 188 229 228 208 209 289 248 
269 249 328 308 329 309 349 368 348 
369 409 388 389 408 448 428 449 429 
469 468 488 489 509 529 528 508 548 
568 549 569 589 588 608 609 628 629 
648 649 668 669 688 689 709 708 728 
729 769 749 748 768 809 808 789 788 
848 828 829 849 868 889 869 888 908 
909 929 928 948 968 949 969 988 989 
1009 1008 1029 1049 1048 1028 1068 1088 1089 
1069 1109 1108 1129 1128 1148 1149 1169 1189 
1168 1188 1211 1231 1230 1210 1270 1251 1271 
1250 1291 1311 1290 1310 1350 1330 1351 1331 
1371 1390 1391 1370 1430 1431 1410 1411 1450 
1451 1470 1471 1511 1510 1490 1491 1531 1551 
1530 1550 1571 1591 1570 1590 1611 1610 1631 
1650 1630 1651 30 10 31 11 50 70 
51 71 91 110 90 111 151 131 150 
130 190 191 171 170 231 211 210 230 
271 250 251 270 290 291 331 330 311 
310 370 351 350 371 390 411 391 410 
431 430 450 451 490 471 491 470 530 
510 531 511 570 551 571 550 590 591 
610 611 650 651 631 630 671 670 690 
691 730 731 711 710 751 771 770 750 
790 791 810 811 831 850 830 851 890 
871 870 891 910 911 931 930 970 951 
950 971 990 1011 991 1010 1031 1050 1030 
1051 1071 1070 1091 1090 1110 1111 1131 1151 
1150 1130 1191 1170 1190 1171 1212 1213 1232 
1233 1252 1253 1272 1273 1312 1293 1313 1292 
1333 1352 1332 1353 1373 1392 1372 1393 1412 
1413 1432 1433 1473 1472 1453 1452 1493 1512 
1513 1492 1533 1532 1552 1553 1573 1572 1593 
1613 1592 1653 1632 1633 1612 1652 32 13 
12 33 72 73 53 52 112 92 113 
93 153 152 132 133 172 193 173 192 
232 213 212 233 272 273 253 252 312 
293 292 332 313 333 373 353 352 372 
392 412 393 413 453 452 432 433 492 
493 473 472 533 532 513 512 573 552 
553 572 593 592 613 612 652 633 653 
632 672 693 692 673 733 712 732 713 
752 772 773 753 792 793 812 813 833 
832 852 853 892 873 893 872 913 912 
933 932 952 953 973 972 992 1012 1013 
993 1033 1032 1053 1052 1072 1113 1073 1093 
1092 1112 1152 1133 1132 1153 1172 1192 1193 
1173 1234 1215 1235 1214 1255 1254 1275 1274 
1315 1295 1294 1314 1355 1354 1334 1335 1375 
1374 1394 1395 1434 1414 1415 1435 1455 1475 
1474 1454 1494 1495 1514 1515 1535 1534 1555 
1554 1575 1614 1574 1615 1595 1594 1635 1634 
1655 1654 15 14 35 34 74 55 54 
75 95 115 114 94 134 135 155 154 
195 194 174 175 215 235 234 214 295 
254 274 255 275 294 334 335 315 314 
354 374 355 375 394 414 395 415 454 
435 434 455 494 474 475 495 535 534 
515 514 554 555 575 574 594 615 614 
595 654 634 655 635 694 695 674 675 
734 735 715 714 754 755 774 775 795 
815 814 794 835 834 855 854 894 895 
874 875 935 915 914 934 955 974 975 
995 954 1015 994 1035 1014 1034 1075 1055 
1054 1074 1095 1114 1094 1115 1135 1155 1154 
1134 1195 1174 1175 1194 1237 1217 1216 1236 
1257 1256 1276 1277 1296 1297 1316 1317 1357 
1336 1337 1356 1397 1377 1376 1396 1437 1436 
1416 1417 1457 1477 1497 1456 1476 1537 1536 
1517 1516 1496 1557 1556 1576 1577 1596 1597 
1616 1617 1637 1657 1636 1656 37 17 36 
16 57 76 77 56 97 117 116 96 
157 156 137 136 196 177 176 217 197 
236 257 237 256 216 296 277 297 276 
316 337 336 317 356 357 377 376 397 
396 416 417 436 456 437 457 496 477 
497 476 536 537 516 517 576 577 557 
556 596 616 617 597 637 657 636 656 
677 676 717 696 697 736 737 757 716 
756 776 796 797 777 816 836 817 837 
877 876 856 857 896 916 917 897 956 
937 957 936 977 996 997 976 1037 1016 
1017 1036 1056 1076 1077 1057 1097 1117 1096 
1116 1157 1136 1137 1156 1177 1176 1197 1196 
1238 1299 1218 1319 1359 1339 1278 1258 1379 
1318 1419 1399 1298 1378 1439 1459 1358 1338 
1499 1418 1479 1398 1438 1458 1539 1519 1559 
1498 1478 1579 1538 1619 1518 1599 1659 1558 
1639 1578 1618 1598 39 19 59 79 1638 
1658 38 119 99 18 58 139 159 78 
179 98 199 118 219 138 259 178 239 
158 279 299 198 218 258 319 238 339 
298 278 379 359 318 338 399 419 459 
378 358 439 398 418 479 499 519 458 
438 539 579 478 559 498 599 518 619 
538 558 639 578 659 679 598 618 638 
699 719 678 658 759 739 799 718 779 
698 839 758 738 819 859 798 879 778 
838 818 919 899 858 959 878 939 918 
979 898 999 938 958 1019 1039 1059 998 
1079 978 1099 1038 1119 1018 1139 1078 1159 
1058 1098 1179 1118 1199 1158 1239 1219 1138 
1279 1198 1178 1259 2398 2401 2399 2400 2402 
2405 2403 2404 2408 2406 2409 2407 2411 2412 
2413 2410 2417 2414 2415 2416 2421 2420 2419 
2418 2425 2423 2427 2422 2426 2424 2431 2429 
2430 2428 2435 2433 2434 2432 2437 2438 2436 
2439 2440 2442 2441 2443 2446 2447 2444 2445 
2449 2448 2450 2451 2452 2453 2454 2455 2457 
2459 2456 2458 2463 2461 2460 2462 2466 2467 
2464 2465 2468 2469 2470 2471 2475 2474 2473 
2472 2481 2478 2476 2479 2477 2480 2482 2483 
2484 2485 2486 2489 2488 2487 2490 2491 2492 
2493 2497 2496 2495 2494 2498 2499 2500 2501 
2504 2505 2502 2503 2509 2508 2507 2506 2511 
2512 2513 2510 2514 2515 2516 2517 2521 2518 
2519 2520 2524 2525 2522 2523 2526 2529 2528 
2527 2532 2533 2531 2530 2534 2535 2536 2537 
2538 2539 2540 2543 2542 2541 2544 2545 2546 
2547 2548 2549 2550 2551 2555 2552 2553 2554 
2558 2556 2557 2559 2560 2561 2562 2563 
FIELD FieldData 7
r 3 2798 float
-0.5375 -0.4875 0 -0.5375 -0.4625 0 -0.5125 -0.4875 0 
-0.5125 -0.4625 0 -0.487805 -0.4875 0 -0.487805 -0.4625 0 
-0.463415 -0.4875 0 -0.463415 -0.4625 0 -0.414634 -0.4625 0 
-0.439024 -0.4875 0 -0.439024 -0.4625 0 -0.414634 -0.4875 0 
-0.390244 -0.4875 0 -0.365854 -0.4625 0 -0.390244 -0.4625 0 
-0.365854 -0.4875 0 -0.317073 -0.4625 0 -0.317073 -0.4875 0 
-0.341463 -0.4625 0 -0.341463 -0.4875 0 -0.268293 -0.4625 0 
-0.292683 -0.4625 0 -0.292683 -0.4875 0 -0.268293 -0.4875 0 
-0.219512 -0.4625 0 -0.243902 -0.4625 0 -0.243902 -0.4875 0 
-0.219512 -0.4875 0 -0.195122 -0.4875 0 -0.195122 -0.4625 0 
-0.170732 -0.4875 0 -0.170732 -0.4625 0 -0.121951 -0.4625 0 
-0.146341 -0.4875 0 -0.146341 -0.4625 0 -0.121951 -0.4875 0 
-0.097561 -0.4625 0 -0.097561 -0.4875 0 -0.0731707 -0.4625 0 
-0.0731707 -0.4875 0 -1.86265e-08 -0.4875 0 -1.86265e-08 -0.4625 0 
-0.0487805 -0.4625 0 -0.0243903 -0.4875 0 -0.0243903 -0.4625 0 
-0.0487805 -0.4875 0 0.0487805 -0.4875 0 0.0243902 -0.4875 0 
0.0243902 -0.4625 0 0.0487805 -0.4625 0 0.097561 -0.4625 0 
0.0731707 -0.4875 0 0.0731707 -0.4625 0 0.097561 -0.4875 0 
0.121951 -0.4875 0 0.121951 -0.4625 0 0.146341 -0.4875 0 
0.146341 -0.4625 0 0.195122 -0.4625 0 0.195122 -0.4875 0 
0.170732 -0.4625 0 0.170732 -0.4875 0 0.219512 -0.4875 0 
0.243902 -0.4625 0 0.243902 -0.4875 0 0.219512 -0.4625 0 
0.268293 -0.4625 0 0.268293 -0.4875 0 0.292683 -0.4625 0 
0.292683 -0.4875 0 0.317073 -0.4875 0 0.341463 -0.4875 0 
0.341463 -0.4625 0 0.317073 -0.4625 0 0.390244 -0.4625 0 
0.390244 -0.4875 0 0.365854 -0.4875 0 0.365854 -0.4625 0 
0.439024 -0.4625 0 0.439024 -0.4875 0 0.414634 -0.4625 0 
0.414634 -0.4875 0 0.487805 -0.4625 0 0.487805 -0.4875 0 
0.463415 -0.4625 0 0.463415 -0.4875 0 0.5375 -0.4875 0 
0.5375 -0.4625 0 0.5125 -0.4875 0 0.5125 -0.4625 0 
-0.5375 -0.4125 0 -0.5125 -0.4375 0 -0.5125 -0.4125 0 
-0.5375 -0.4375 0 -0.48804 -0.437517 0 -0.463578 -0.43739 0 
-0.487993 -0.412414 0 -0.463598 -0.412282 0 -0.439235 -0.412347 0 
-0.414822 -0.437485 0 -0.414835 -0.412489 0 -0.439216 -0.43744 0 
-0.365844 -0.412614 0 -0.365922 -0.437519 0 -0.390382 -0.437513 0 
-0.390361 -0.412577 0 -0.316928 -0.437564 0 -0.316683 -0.412766 0 
-0.341293 -0.412674 0 -0.341445 -0.437535 0 -0.292032 -0.412779 0 
-0.267365 -0.412826 0 -0.292385 -0.437563 0 -0.267836 -0.437581 0 
-0.217961 -0.412895 0 -0.242672 -0.412871 0 -0.218685 -0.437607 0 
-0.243266 -0.437597 0 -0.194102 -0.43762 0 -0.168528 -0.412933 0 
-0.193245 -0.412917 0 -0.169516 -0.437631 0 -0.144933 -0.43764 0 
-0.143817 -0.412943 0 -0.120354 -0.437646 0 -0.119117 -0.412946 0 
-0.0957847 -0.437652 0 -0.0697705 -0.412936 0 -0.0712258 -0.437655 0 
-0.094433 -0.412943 0 -0.0205232 -0.412907 0 -0.0451326 -0.412923 0 
-0.0221509 -0.437658 0 -0.0466803 -0.437657 0 0.0286 -0.412866 0 
0.0023604 -0.437658 0 0.00405519 -0.412888 0 0.0268518 -0.437657 0 
0.0775821 -0.412818 0 0.075769 -0.437654 0 0.0513217 -0.437656 0 
0.0531094 -0.412842 0 0.100193 -0.437652 0 0.102018 -0.412793 0 
0.124594 -0.43765 0 0.126417 -0.412767 0 0.148972 -0.437648 0 
0.150779 -0.412742 0 0.175105 -0.412717 0 0.197661 -0.437644 0 
0.199396 -0.412691 0 0.173327 -0.437647 0 0.221973 -0.437642 0 
0.246265 -0.43764 0 0.247874 -0.412639 0 0.223652 -0.412664 0 
0.270539 -0.437637 0 0.272063 -0.41261 0 0.296217 -0.412583 0 
0.294793 -0.437631 0 0.31903 -0.437629 0 0.344436 -0.412535 0 
0.320342 -0.412561 0 0.343253 -0.437627 0 0.391651 -0.437617 0 
0.368496 -0.412506 0 0.367459 -0.43762 0 0.392518 -0.412474 0 
0.439962 -0.437622 0 0.440441 -0.412459 0 0.416489 -0.412411 0 
0.415807 -0.437596 0 0.464433 -0.412583 0 0.488422 -0.412749 0 
0.464152 -0.43765 0 0.48844 -0.437852 0 0.5125 -0.4375 0 
0.5375 -0.4375 0 0.5125 -0.4125 0 0.5375 -0.4125 0 
-0.5375 -0.3875 0 -0.5375 -0.3625 0 -0.5125 -0.3625 0 
-0.5125 -0.3875 0 -0.487995 -0.3622 0 -0.463601 -0.361992 0 
-0.463633 -0.38714 0 -0.488016 -0.387314 0 -0.439297 -0.387264 0 
-0.414804 -0.362574 0 -0.414894 -0.387515 0 -0.439244 -0.362183 0 
-0.390401 -0.387686 0 -0.390251 -0.362843 0 -0.365841 -0.387772 0 
-0.365614 -0.363001 0 -0.34123 -0.387887 0 -0.316123 -0.363454 0 
-0.316546 -0.388059 0 -0.340911 -0.36318 0 -0.291806 -0.388092 0 
-0.266414 -0.363609 0 -0.267051 -0.388169 0 -0.29127 -0.363507 0 
-0.241534 -0.363727 0 -0.216632 -0.363774 0 -0.217464 -0.388287 0 
-0.242268 -0.388249 0 -0.166846 -0.363824 0 -0.167848 -0.388337 0 
-0.191736 -0.363813 0 -0.192655 -0.388321 0 -0.117135 -0.363783 0 
-0.118275 -0.388333 0 -0.143053 -0.388342 0 -0.141976 -0.363813 0 
-0.0675614 -0.363671 0 -0.0687985 -0.388282 0 -0.0923279 -0.363734 0 
-0.0935218 -0.388312 0 -0.044109 -0.388243 0 -0.0194575 -0.388197 0 
-0.0428399 -0.363596 0 -0.0181665 -0.36351 0 0.0310258 -0.36332 0 
0.0064559 -0.363417 0 0.00515294 -0.388147 0 0.0297202 -0.388092 0 
0.0800059 -0.363119 0 0.0787204 -0.387977 0 0.0555426 -0.36322 0 
0.0542429 -0.388035 0 0.128775 -0.362913 0 0.103153 -0.387917 0 
0.104416 -0.363016 0 0.12754 -0.387857 0 0.153082 -0.362808 0 
0.17734 -0.362702 0 0.176182 -0.387734 0 0.151883 -0.387796 0 
0.225715 -0.362489 0 0.224655 -0.387608 0 0.200439 -0.387671 0 
0.248829 -0.387548 0 0.24983 -0.362378 0 0.201551 -0.362595 0 
0.273894 -0.362262 0 0.297912 -0.362157 0 0.297052 -0.387415 0 
0.272961 -0.387481 0 0.321884 -0.362057 0 0.345803 -0.361939 0 
0.345113 -0.387298 0 0.321104 -0.387361 0 0.393469 -0.36167 0 
0.392991 -0.387141 0 0.369666 -0.361817 0 0.369078 -0.387227 0 
0.416844 -0.387024 0 0.417207 -0.361487 0 0.440669 -0.387087 0 
0.44091 -0.361557 0 0.464636 -0.361764 0 0.488421 -0.3875 0 
0.48842 -0.36215 0 0.464522 -0.387255 0 0.5375 -0.3625 0 
0.5125 -0.3625 0 0.5375 -0.3875 0 0.5125 -0.3875 0 
-0.5125 -0.3375 0 -0.5375 -0.3125 0 -0.5375 -0.3375 0 
-0.5125 -0.3125 0 -0.487983 -0.312021 0 -0.463598 -0.311714 0 
-0.48798 -0.337109 0 -0.463569 -0.336857 0 -0.439258 -0.312084 0 
-0.414721 -0.337686 0 -0.439198 -0.337132 0 -0.414797 -0.312828 0 
-0.365453 -0.313707 0 -0.390114 -0.338073 0 -0.390186 -0.313342 0 
-0.365405 -0.338322 0 -0.315615 -0.314595 0 -0.340612 -0.338579 0 
-0.315716 -0.338973 0 -0.340601 -0.314058 0 -0.265807 -0.339141 0 
-0.290562 -0.314643 0 -0.26556 -0.31473 0 -0.290753 -0.339033 0 
-0.240547 -0.314957 0 -0.215485 -0.315002 0 -0.240844 -0.339304 0 
-0.215854 -0.339351 0 -0.165441 -0.315 0 -0.165926 -0.339386 0 
-0.190448 -0.315012 0 -0.190882 -0.339385 0 -0.140995 -0.339348 0 
-0.116102 -0.339288 0 -0.115524 -0.314832 0 -0.14046 -0.314932 0 
-0.0664489 -0.339094 0 -0.0912512 -0.339201 0 -0.0658077 -0.314548 0 
-0.0906398 -0.314705 0 -0.0170122 -0.338837 0 -0.0163312 -0.314181 0 
-0.0410371 -0.314371 0 -0.0417021 -0.338971 0 0.00761861 -0.338694 0 
0.00830925 -0.31398 0 0.0321892 -0.338546 0 0.0328838 -0.313774 0 