# vtk DataFile Version 4.0
vtk output
ASCII
DATASET POLYDATA
FIELD FieldData 4
domain 1 3 string
domain_min:-20|-15
domain_max:20|15
cell_size:0.05

variables 1 2 string
dt:0.000372678
T:0.895524

constants 1 10 string
xsize:2
ysize:1
csize:0.05
dx:0.0238095
h:0.025
rho0:1000
mass:0.566894
g:1|0
c:13.4164
CFL:0.2

functions 1 8 string
time:T=(T+dt)
continuity:rho_dot=((-(rho*sph_D00(v,mass,rho,Wp52220)))+(((0.1*c)*h)*sph_L00(rho,mass,rho,Wp52220)))
irho:rho=(rho+int1((rho_dot,dt))
EOS:p=(((c^2)*(rho-rho0))+10000)
euler:a=if((gid,(0*v),(((-((1/rho)*sph_G11(p,mass,rho,Wp52220)))+(0.01*sph_L00(v,mass,rho,Wp52220)))+g))
vel:v=(v+int1((a,dt))
pos:r=(r+int1((v,dt))
new_dt:dt=(CFL*min((sqrt(((h/fmax(magnitude((a)))),(h/c)))

POINTS 2798 float
-0.5375 -0.4625 0 -0.5125 -0.4875 0 -0.5125 -0.4625 0 
-0.5375 -0.4875 0 -0.487805 -0.4875 0 -0.487805 -0.4625 0 
-0.463415 -0.4875 0 -0.463415 -0.4625 0 -0.414634 -0.4625 0 
-0.439024 -0.4625 0 -0.414634 -0.4875 0 -0.439024 -0.4875 0 
-0.365854 -0.4625 0 -0.365854 -0.4875 0 -0.390244 -0.4625 0 
-0.390244 -0.4875 0 -0.341463 -0.4625 0 -0.341463 -0.4875 0 
-0.317073 -0.4625 0 -0.317073 -0.4875 0 -0.268293 -0.4875 0 
-0.292683 -0.4625 0 -0.292683 -0.4875 0 -0.268293 -0.4625 0 
-0.219512 -0.4875 0 -0.219512 -0.4625 0 -0.243902 -0.4875 0 
-0.243902 -0.4625 0 -0.195122 -0.4625 0 -0.170732 -0.4875 0 
-0.195122 -0.4875 0 -0.170732 -0.4625 0 -0.146341 -0.4625 0 
-0.121951 -0.4875 0 -0.121951 -0.4625 0 -0.146341 -0.4875 0 
-0.097561 -0.4625 0 -0.0731707 -0.4875 0 -0.097561 -0.4875 0 
-0.0731707 -0.4625 0 -1.86265e-08 -0.4625 0 -0.0487805 -0.4875 0 
-1.86265e-08 -0.4875 0 -0.0487805 -0.4625 0 -0.0243903 -0.4625 0 
-0.0243903 -0.4875 0 0.0243902 -0.4625 0 0.0487805 -0.4625 0 
0.0243902 -0.4875 0 0.0487805 -0.4875 0 0.097561 -0.4625 0 
0.0731707 -0.4625 0 0.0731707 -0.4875 0 0.097561 -0.4875 0 
0.121951 -0.4625 0 0.121951 -0.4875 0 0.146341 -0.4625 0 
0.146341 -0.4875 0 0.170732 -0.4875 0 0.195122 -0.4875 0 
0.170732 -0.4625 0 0.195122 -0.4625 0 0.219512 -0.4625 0 
0.219512 -0.4875 0 0.243902 -0.4625 0 0.243902 -0.4875 0 
0.268293 -0.4875 0 0.268293 -0.4625 0 0.292683 -0.4625 0 
0.292683 -0.4875 0 0.317073 -0.4875 0 0.341463 -0.4875 0 
0.317073 -0.4625 0 0.341463 -0.4625 0 0.365854 -0.4875 0 
0.390244 -0.4875 0 0.365854 -0.4625 0 0.390244 -0.4625 0 
0.414634 -0.4625 0 0.439024 -0.4875 0 0.414634 -0.4875 0 
0.439024 -0.4625 0 0.487805 -0.4875 0 0.487805 -0.4625 0 
0.463415 -0.4875 0 0.463415 -0.4625 0 0.5375 -0.4625 0 
0.5125 -0.4625 0 0.5375 -0.4875 0 0.5125 -0.4875 0 
-0.5125 -0.4375 0 -0.5125 -0.4125 0 -0.5375 -0.4125 0 
-0.5375 -0.4375 0 -0.464112 -0.435048 0 -0.488123 -0.412662 0 
-0.466615 -0.405495 0 -0.48718 -0.43756 0 -0.440502 -0.438004 0 
-0.444556 -0.412546 0 -0.416405 -0.435569 0 -0.42051 -0.410786 0 
-0.394121 -0.437821 0 -0.366414 -0.43785 0 -0.379601 -0.418268 0 
-0.39937 -0.4049 0 -0.300108 -0.410178 0 -0.342451 -0.437286 0 
-0.323613 -0.411231 0 -0.318296 -0.437009 0 -0.347354 -0.413032 0 
-0.277413 -0.410191 0 -0.255261 -0.408233 0 -0.271605 -0.436689 0 
-0.294898 -0.436635 0 -0.211143 -0.410144 0 -0.249102 -0.435789 0 
-0.233315 -0.409036 0 -0.203454 -0.436706 0 -0.226572 -0.436647 0 
-0.188777 -0.409471 0 -0.166099 -0.410441 0 -0.15744 -0.436974 0 
-0.180593 -0.436445 0 -0.143012 -0.411359 0 -0.109578 -0.437588 0 
-0.133737 -0.437344 0 -0.119606 -0.412028 0 -0.0852826 -0.437529 0 
-0.0959487 -0.412288 0 -0.0608716 -0.437738 0 -0.0719186 -0.412549 0 
-0.0209459 -0.414907 0 -0.009908 -0.438238 0 -0.0355532 -0.438282 0 
-0.0468078 -0.41436 0 0.00498427 -0.414469 0 0.0311396 -0.414938 0 
0.040992 -0.438304 0 0.0154695 -0.43811 0 0.085645 -0.416643 0 
0.0577886 -0.415538 0 0.0932913 -0.43883 0 0.0668606 -0.438327 0 
0.14475 -0.438168 0 0.119332 -0.438413 0 0.112434 -0.415493 0 
0.138246 -0.414347 0 0.194274 -0.417081 0 0.17124 -0.438584 0 
0.165194 -0.416595 0 0.197971 -0.439002 0 0.247029 -0.41476 0 
0.224813 -0.438878 0 0.221416 -0.416094 0 0.25088 -0.438472 0 
0.277523 -0.438854 0 0.272971 -0.416559 0 0.300884 -0.417057 0 
0.332289 -0.439403 0 0.328802 -0.417904 0 0.304574 -0.439013 0 
0.386944 -0.438516 0 0.360104 -0.439237 0 0.356829 -0.417719 0 
0.384465 -0.416124 0 0.41176 -0.415897 0 0.413097 -0.438619 0 
0.438307 -0.41558 0 0.439135 -0.438635 0 0.488337 -0.413029 0 
0.463911 -0.413218 0 0.488563 -0.437934 0 0.464223 -0.437688 0 
0.5125 -0.4125 0 0.5125 -0.4375 0 0.5375 -0.4125 0 
0.5375 -0.4375 0 -0.5125 -0.3625 0 -0.5125 -0.3875 0 
-0.5375 -0.3625 0 -0.5375 -0.3875 0 -0.489029 -0.386048 0 
-0.490068 -0.356175 0 -0.470143 -0.373505 0 -0.454226 -0.353681 0 
-0.449526 -0.384974 0 -0.432615 -0.360546 0 -0.406665 -0.373234 0 
-0.425854 -0.38609 0 -0.369288 -0.365682 0 -0.389588 -0.35244 0 
-0.385774 -0.384431 0 -0.364732 -0.398789 0 -0.328518 -0.35976 0 
-0.306322 -0.356829 0 -0.349126 -0.380036 0 -0.327578 -0.386946 0 
-0.304211 -0.383409 0 -0.25917 -0.380957 0 -0.260762 -0.353773 0 
-0.28328 -0.356555 0 -0.281488 -0.38337 0 -0.216534 -0.35498 0 
-0.215127 -0.382708 0 -0.237071 -0.380967 0 -0.238501 -0.353269 0 
-0.171717 -0.35674 0 -0.194301 -0.35539 0 -0.170226 -0.383653 0 
-0.19289 -0.382408 0 -0.102619 -0.360945 0 -0.147254 -0.385078 0 
-0.149059 -0.358538 0 -0.123934 -0.386009 0 -0.100392 -0.386651 0 
-0.126087 -0.359893 0 -0.0515747 -0.390152 0 -0.0537864 -0.365781 0 
-0.0786163 -0.362085 0 -0.0764343 -0.387321 0 -0.0287492 -0.367007 0 
-0.00405187 -0.366565 0 -0.0263536 -0.391287 0 -0.00114181 -0.390853 0 
0.0213206 -0.367912 0 0.0474194 -0.369079 0 0.0244534 -0.391513 0 
0.0771179 -0.394838 0 0.0734838 -0.371834 0 0.0503449 -0.392554 0 
0.0986913 -0.369456 0 0.14865 -0.371364 0 0.123116 -0.366162 0 
0.128606 -0.390943 0 0.103386 -0.392919 0 0.156109 -0.39387 0 
0.176812 -0.374747 0 0.184194 -0.396968 0 0.195554 -0.35108 0 
0.169485 -0.352089 0 0.203397 -0.374645 0 0.240803 -0.39162 0 
0.219375 -0.350149 0 0.213415 -0.394569 0 0.231665 -0.370885 0 
0.293812 -0.39562 0 0.25027 -0.351971 0 0.262394 -0.37101 0 
0.267651 -0.39299 0 0.282949 -0.351325 0 0.290635 -0.37176 0 
0.317843 -0.352994 0 0.315523 -0.375309 0 0.343687 -0.375423 0 
0.322934 -0.396644 0 0.343299 -0.352927 0 0.371498 -0.351104 0 
0.351546 -0.396505 0 0.37933 -0.394609 0 0.398826 -0.373573 0 
0.398896 -0.352056 0 0.370769 -0.37311 0 0.427962 -0.3519 0 
0.427091 -0.372892 0 0.436425 -0.393332 0 0.407924 -0.394393 0 
0.484503 -0.36656 0 0.488334 -0.388511 0 0.462674 -0.389374 0 
0.454971 -0.368051 0 0.5125 -0.3875 0 0.5375 -0.3625 0 
0.5375 -0.3875 0 0.5125 -0.3625 0 -0.5125 -0.3125 0 
-0.5125 -0.3375 0 -0.5375 -0.3375 0 -0.5375 -0.3125 0 
-0.468577 -0.304752 0 -0.489898 -0.322974 0 -0.453424 -0.32273 0 
-0.473297 -0.338937 0 -0.411207 -0.315464 0 -0.431973 -0.304018 0 
-0.432981 -0.332498 0 -0.411987 -0.344989 0 -0.372755 -0.304854 0 
-0.350899 -0.317402 0 -0.36892 -0.335028 0 -0.390663 -0.324437 0 
-0.34947 -0.349716 0 -0.314244 -0.304894 0 -0.308985 -0.330631 0 
-0.331235 -0.330523 0 -0.285539 -0.329956 0 -0.262711 -0.327013 0 
-0.290528 -0.304045 0 -0.267067 -0.301003 0 -0.218055 -0.326992 0 
-0.24008 -0.325722 0 -0.199655 -0.300176 0 -0.177612 -0.302156 0 
-0.196073 -0.328154 0 -0.173673 -0.329564 0 -0.151129 -0.331397 0 
-0.154788 -0.304372 0 -0.109567 -0.308825 0 -0.12873 -0.333152 0 
-0.105697 -0.335119 0 -0.132094 -0.305613 0 -0.0563982 -0.3413 0 
-0.0852771 -0.312117 0 -0.0815302 -0.33687 0 -0.0593286 -0.317146 0 
-0.00720265 -0.341336 0 -0.0313477 -0.342531 0 -0.0338229 -0.318203 0 
-0.0099618 -0.315169 0 0.0170941 -0.343764 0 0.0425729 -0.345696 0 
0.037062 -0.321052 0 0.0133071 -0.318047 0 0.0857628 -0.319704 0 
0.0621897 -0.324341 0 0.0930343 -0.345144 0 0.0689756 -0.34809 0 
0.138125 -0.324692 0 0.126136 -0.301796 0 0.117228 -0.341898 0 
0.108784 -0.317789 0 0.144404 -0.346848 0 0.156719 -0.308662 0 
0.194438 -0.327538 0 0.169041 -0.328493 0 0.185302 -0.30407 0 
0.215943 -0.31888 0 0.235091 -0.331929 0 0.28563 -0.318136 0 
0.250975 -0.312911 0 0.266293 -0.333271 0 0.330144 -0.301931 0 
0.302416 -0.336136 0 0.307036 -0.306657 0 0.326506 -0.326832 0 
0.379743 -0.329102 0 0.351681 -0.331281 0 0.382819 -0.306909 0 
0.355272 -0.309121 0 0.407559 -0.331318 0 0.436854 -0.309604 0 
0.435905 -0.33147 0 0.40938 -0.309509 0 0.464598 -0.301096 0 
0.462957 -0.324622 0 0.459243 -0.347308 0 0.487176 -0.345402 0 
0.488497 -0.321892 0 0.5375 -0.3125 0 0.5125 -0.3375 0 
0.5375 -0.3375 0 0.5125 -0.3125 0 -0.5375 -0.2625 0 
-0.5375 -0.2875 0 -0.5125 -0.2625 0 -0.5125 -0.2875 0 
-0.466498 -0.272411 0 -0.487982 -0.268361 0 -0.488649 -0.294512 0 
-0.414176 -0.284508 0 -0.431535 -0.269178 0 -0.449851 -0.254008 0 
-0.449304 -0.288916 0 -0.358268 -0.285266 0 -0.398978 -0.262248 0 
-0.378294 -0.271091 0 -0.35889 -0.254219 0 -0.393304 -0.293692 0 
-0.339206 -0.268613 0 -0.336227 -0.298025 0 -0.317028 -0.277547 0 
-0.269863 -0.275323 0 -0.296303 -0.253339 0 -0.293758 -0.278767 0 
-0.272414 -0.250018 0 -0.221581 -0.298895 0 -0.201464 -0.272122 0 
-0.246687 -0.272143 0 -0.244079 -0.298824 0 -0.22396 -0.271698 0 
-0.156893 -0.277939 0 -0.179569 -0.274422 0 -0.158359 -0.251523 0 
-0.134805 -0.252432 0 -0.111109 -0.281774 0 -0.133775 -0.278617 0 
-0.111497 -0.254931 0 -0.0647077 -0.268994 0 -0.0884691 -0.261197 0 
-0.0625907 -0.293352 0 -0.0879385 -0.287204 0 -0.0132196 -0.288785 0 
-0.0394543 -0.270542 0 -0.0142364 -0.263143 0 -0.0369078 -0.294197 0 
0.0331768 -0.294777 0 0.0338833 -0.268593 0 0.0101035 -0.29137 0 
0.0100047 -0.265588 0 0.0808448 -0.294855 0 0.0570526 -0.299564 0 
0.0797688 -0.268327 0 0.0567241 -0.274092 0 0.10002 -0.25946 0 
0.144789 -0.286071 0 0.121443 -0.273241 0 0.129331 -0.250262 0 
0.102742 -0.289281 0 0.151445 -0.263437 0 0.171827 -0.285963 0 
0.179923 -0.26544 0 0.230114 -0.272265 0 0.233262 -0.297379 0 
0.207574 -0.294652 0 0.203413 -0.272704 0 0.239447 -0.251277 0 
0.253809 -0.279066 0 0.269826 -0.298503 0 0.273497 -0.266978 0 
0.290916 -0.286697 0 0.296012 -0.256935 0 0.323582 -0.253918 0 
0.347894 -0.253813 0 0.337224 -0.278545 0 0.312458 -0.277346 0 
[...]
POINT_DATA 2798
SCALARS id float
LOOKUP_TABLE default
2601 2620 2621 2600 2640 2641 2642 2643 2647 
2645 2646 2644 2651 2650 2649 2648 2653 2652 
2655 2654 2658 2657 2656 2659 2662 2663 2660 
2661 2665 2666 2664 2667 2669 2670 2671 2668 
2673 2674 2672 2675 2681 2676 2680 2677 2679 
2678 2683 2685 2682 2684 2689 2687 2686 2688 
2691 2690 2693 2692 2694 2696 2695 2697 2699 
2698 2701 2700 2702 2703 2705 2704 2706 2708 
2707 2709 2710 2712 2711 2713 2715 2716 2714 
2717 2720 2721 2718 2719 2743 2723 2742 2722 
2622 2623 2603 2602 1678 1661 1679 1660 1696 
1697 1714 1715 1732 1768 1750 1733 1823 1786 
1805 1804 1787 1841 1859 1840 1822 1895 1858 
1877 1894 1876 1913 1931 1930 1912 1949 1966 
1948 1967 1984 1985 2002 2003 2039 2038 2020 
2021 2057 2075 2074 2056 2111 2093 2110 2092 
2146 2128 2129 2147 2183 2164 2165 2182 2219 
2200 2201 2218 2236 2237 2255 2272 2273 2254 
2308 2290 2291 2309 2327 2326 2345 2344 2381 
2363 2380 2362 2725 2724 2745 2744 2625 2624 
2605 2604 1662 1663 1680 1699 1698 1717 1734 
1716 1770 1752 1751 1769 1807 1825 1788 1806 
1824 1860 1861 1843 1842 1897 1896 1878 1879 
1933 1915 1932 1914 1987 1950 1951 1968 1986 
1969 2022 2023 2005 2004 2041 2059 2040 2058 
2077 2095 2076 2112 2113 2094 2131 2167 2149 
2148 2130 2166 2185 2184 2204 2186 2203 2220 
2222 2202 2221 2256 2240 2239 2238 2258 2257 
2276 2275 2293 2274 2294 2312 2292 2310 2329 
2330 2311 2348 2347 2346 2328 2383 2382 2364 
2365 2726 2747 2746 2727 2627 2626 2606 2607 
1682 1664 1700 1681 1736 1719 1718 1735 1772 
1790 1771 1753 1789 1827 1826 1808 1844 1862 
1845 1863 1898 1880 1917 1935 1916 1934 1952 
1953 1989 1970 1988 1971 2024 2007 2006 2025 
2060 2042 2043 2061 2078 2096 2097 2079 2133 
2115 2132 2114 2169 2170 2150 2151 2168 2188 
2205 2187 2189 2206 2223 2242 2224 2241 2278 
2259 2260 2277 2313 2295 2314 2296 2331 2350 
2349 2332 2368 2367 2366 2384 2385 2749 2728 
2748 2729 2609 2608 2629 2628 1683 1666 1665 
1737 1720 1702 1701 1791 1755 1773 1792 1754 
1810 1809 1828 1864 1847 1846 1865 1899 1918 
1882 1881 1900 1954 1936 1955 1973 1990 1972 
1991 2027 2009 2026 2008 2062 2045 2063 2044 
2098 2099 2080 2081 2134 2116 2135 2117 2136 
2171 2153 2137 2152 2154 2172 2155 2191 2207 
2190 2173 2174 2208 2225 2226 2243 2244 2262 
2280 2279 2261 2298 2315 2297 2316 2352 2351 
2333 2334 2386 2387 2369 2731 2751 2730 2750 
2631 2611 2610 2630 1703 1684 1668 1667 1738 
1739 1721 1775 1793 1757 1756 1774 1830 1829 
1811 1812 1867 1866 1848 1920 1901 1884 1919 
1883 1902 1938 1956 1937 1993 1992 1974 1975 
2010 2028 2011 2029 2048 2047 2064 2046 2082 
2065 2100 2083 2101 2118 2103 2119 2105 2104 
2120 2121 2071 2139 2122 2138 2123 2141 2140 
2089 2157 2156 2192 2227 2209 2245 2228 2210 
2263 2264 2299 2282 2246 2281 2317 2335 2300 
2336 2388 2370 2353 2389 2752 2753 2733 2732 
2613 2633 2632 2612 1704 1669 1723 1685 1686 
1741 1758 1759 1722 1740 1794 1795 1777 1776 
1849 1831 1813 1832 1868 1869 1885 1886 1921 
1922 1904 1903 1940 1939 1958 1957 1994 1960 
1977 1995 1976 2012 2013 1978 2030 2014 1996 
1979 2031 2067 2084 2066 2049 2032 2050 2086 
2102 2085 2068 2087 2033 2069 2070 2106 2088 
2051 1839 2053 2052 2000 2175 2035 2158 2159 
2036 2193 2177 2176 2211 2212 2229 2265 2247 
2194 2318 2283 2284 2266 2391 2371 2354 2372 
2390 2754 2735 2734 2755 2615 2634 2614 2635 
1670 1705 1687 1706 1724 1760 1742 1725 1743 
1778 1796 1761 1815 1816 1814 1850 1833 1834 
1851 1852 1870 1905 1923 1887 1871 1941 1924 
1925 1906 1959 1942 1943 1909 1961 1874 1927 
1944 1962 1945 1785 2015 1892 1980 1997 1999 
1910 1998 1963 2016 160 1981 2017 2034 1982 
1964 1 1946 1838 1857 1821 2107 1911 180 
1929 2124 2054 1893 2072 2125 2018 2230 2142 
2248 2195 2267 2301 2337 2355 2737 2736 2756 
2757 2617 2637 2616 2636 1688 1689 1671 1707 
1726 1708 1691 1744 1779 1762 1727 1780 1763 
1745 1797 1781 1798 1746 1799 1817 1835 1888 
1783 1853 1889 1907 1872 1855 1926 1801 1836 
1748 1890 1819 1908 1837 1856 1818 1767 1891 
80 1560 1241 1749 1520 1873 1731 1802 1713 
1820 1261 1580 1600 40 1281 1201 1928 1803 
1541 1361 1561 120 60 20 1481 140 1522 
1521 1362 1441 21 1581 1875 280 1461 340 
2160 2213 2090 320 2249 2178 2373 2319 2231 
2285 2739 2738 2758 2759 2565 2567 2566 2564 
2568 2570 2569 2571 2572 2574 2573 2575 2578 
2577 2579 2576 2583 2581 2580 2582 2584 2587 
2586 2585 2591 2589 2588 2590 2595 2593 2592 
2594 2599 2597 2596 2598 2618 2619 2639 2638 
1673 1690 1672 1710 1674 1676 1675 1120 1080 
1100 1709 1140 1180 1728 762 1711 1693 1220 
1695 1692 1160 1782 1694 1764 1800 1280 1854 
1730 1729 1340 1765 1500 1747 1040 1360 1380 
1712 1480 1784 1766 1101 1420 1440 1081 1540 
1141 1460 1121 1400 1181 1122 1161 1102 1082 
100 1221 1301 1142 1321 1202 1222 1341 1183 
1282 1182 1242 1620 1640 1262 1243 0 1381 
1402 1401 1421 1543 1542 181 1601 1621 1947 
2338 220 2761 2760 2741 2740 2762 2764 2765 
2763 2766 2768 2767 2769 2771 2772 2773 2770 
2776 2774 2775 2777 2779 2781 2778 2780 2782 
2783 2784 2785 2788 2787 2789 2786 2793 2791 
2792 2790 2795 2794 2796 2797 2376 2270 2109 
2359 2269 2395 2163 2394 500 2235 2360 2306 
341 2341 640 2377 2396 2342 2253 2324 2217 
840 2199 680 2271 2307 461 660 2325 800 
441 421 740 2361 2343 700 860 720 2378 
2379 542 1020 561 2397 521 761 2289 601 
721 1060 820 780 880 900 920 661 1200 
722 682 1677 940 881 1300 1260 980 1240 
960 861 802 801 1001 921 1000 782 822 
862 1320 1041 901 783 941 843 981 903 
1061 942 922 1062 962 883 1002 1021 982 
1063 1023 1083 1042 1043 1022 1103 1162 1163 
1044 1203 1143 1184 1123 1144 1302 1223 1164 
1263 1342 1502 1322 2143 1442 1382 1523 260 
240 2302 1582 2392 2196 2320 2356 2161 300 
201 2232 2214 2250 2179 2108 161 2215 2303 
2126 41 2339 162 2198 2251 2357 2162 2393 
2374 2234 2252 2180 2216 2321 2055 2305 2375 
2323 2287 2304 2358 2019 2001 2286 163 2073 
1644 380 2340 440 480 2322 2091 400 460 
281 520 221 261 2127 223 2288 321 282 
301 2145 580 302 540 600 263 2181 361 
560 362 620 401 342 442 481 381 462 
363 323 501 382 343 541 402 383 443 
403 422 482 621 423 522 463 582 701 
760 581 681 641 602 583 702 563 622 
662 643 781 703 821 683 841 663 623 
723 741 742 664 763 743 803 804 823 
744 842 784 824 961 785 882 844 902 
863 805 864 943 904 923 963 884 924 
983 944 1024 1045 964 984 1003 1004 1025 
1064 1085 1065 1084 1104 1204 1145 1185 1105 
1124 1224 1303 1283 1244 1363 1501 1343 1482 
1562 1344 1422 1483 1383 1641 1544 1462 1423 
1563 200 1463 1503 1602 1564 1404 1443 141 
1642 81 1524 61 1622 2233 42 2144 143 
2197 182 2268 1983 360 23 83 1965 103 
84 2037 4 1643 1605 63 123 104 62 
43 64 45 25 44 26 420 85 144 
124 203 222 241 183 105 184 165 242 
166 204 224 262 243 283 205 244 245 
225 303 264 304 284 322 364 305 325 
344 324 346 365 345 404 424 384 483 
405 444 464 425 502 523 562 503 504 
484 543 544 524 584 603 642 564 565 
605 585 604 624 645 684 644 626 625 
704 665 685 724 706 764 725 705 745 
746 766 765 787 826 825 786 806 845 
846 866 865 885 906 905 886 926 925 
946 945 986 966 985 965 1066 1086 1026 
1005 1046 1126 1106 1125 1087 1205 1186 1165 
1225 1264 1245 1284 1265 1207 1323 1226 1304 
1364 1324 1403 1285 1384 1345 1365 1366 1385 
1424 1386 1346 1444 1405 1464 1545 1583 1484 
121 1584 1603 102 2 1623 142 101 122 
22 82 3 1625 1586 1567 24 1645 1626 
1606 1646 27 5 6 7 46 65 47 
67 87 86 66 202 125 145 164 106 
127 146 147 126 148 186 187 185 167 
227 226 206 207 265 266 285 246 267 
307 286 306 287 326 347 366 327 367 
386 385 406 426 407 427 445 466 485 
465 446 525 507 486 506 505 547 526 
545 546 587 586 566 567 627 606 607 
667 646 647 666 726 687 686 707 727 
767 747 768 748 788 808 807 847 827 
848 867 828 868 888 907 908 887 928 
947 927 948 987 968 967 1007 1006 1047 
1027 1067 1089 1068 1088 1108 1127 1128 1146 
1107 1206 1147 1187 1167 1166 1208 1228 1188 
1227 1247 1266 1246 1305 1267 1325 1287 1286 
1307 1306 1347 1326 1327 1367 1406 1407 1387 
1425 1445 1465 1446 1426 1466 1485 1525 1504 
1486 1505 1506 1565 1546 1604 1566 1624 1585 
1548 1528 1568 1587 1588 1607 1627 1608 1647 
1649 1648 1628 9 28 8 29 48 49 
68 88 107 89 69 109 108 129 128 
168 149 169 228 209 189 188 208 229 
247 249 248 289 269 288 268 349 308 
329 328 309 369 387 368 348 388 408 
428 409 429 449 448 447 467 468 508 
487 488 548 549 527 528 569 589 588 
568 629 628 608 609 669 649 668 648 
709 688 708 689 728 770 769 749 729 
790 809 789 829 849 910 890 909 870 
889 869 949 929 930 950 969 989 988 
970 1009 1008 1028 1029 1090 1070 1048 1069 
1049 1130 1110 1129 1109 1169 1148 1168 1149 
1210 1209 1230 1189 1229 1269 1248 1249 1268 
1288 1289 1309 1328 1329 1349 1308 1388 1348 
1368 1369 1409 1427 1428 1408 1429 1447 1467 
1448 1488 1468 1507 1487 1547 1526 1508 1527 
1569 1549 1570 1550 1589 1611 1609 1590 1610 
1630 1629 1651 1631 31 11 10 1650 50 
30 51 71 70 91 90 111 110 151 
131 130 191 171 170 150 190 211 231 
230 210 270 271 251 250 290 291 310 
311 350 351 330 331 389 390 370 371 
431 410 411 430 470 450 471 451 469 
509 489 510 490 529 551 550 530 590 
570 591 571 631 630 611 610 671 670 
651 650 710 691 731 711 690 750 771 
751 730 811 791 810 792 850 830 831 
851 891 871 892 951 912 952 931 911 
932 971 991 990 1011 1031 1030 1010 1091 
1050 1071 1051 1092 1111 1131 1112 1132 1151 
1150 1171 1170 1191 1211 1190 1251 1231 1232 
1250 1310 1290 1291 1271 1270 1311 1330 1350 
1331 1351 1389 1370 1371 1410 1391 1390 1411 
1431 1430 1451 1450 1449 1469 1491 1489 1490 
1470 1509 1511 1510 1530 1529 1531 1551 1553 
1571 1572 1552 1593 1591 1612 1592 1613 1632 
1652 1653 1633 13 12 33 32 53 52 
72 73 92 93 113 112 133 152 153 
132 173 172 192 193 212 233 232 213 
253 272 252 273 313 293 292 312 373 
352 353 332 333 372 391 392 393 432 
413 412 433 453 473 472 452 493 513 
512 491 492 511 532 553 531 552 593 
572 592 573 613 633 632 612 653 652 
672 673 732 693 733 692 712 713 752 
773 772 753 813 812 793 853 852 833 
832 873 893 872 913 914 933 953 973 
972 992 993 1012 1013 1033 1032 1072 1073 
1053 1052 1114 1093 1113 1133 1134 1152 1153 
1173 1212 1213 1193 1172 1192 1252 1233 1253 
1273 1272 1293 1292 1333 1332 1312 1313 1352 
1373 1372 1353 1392 1393 1412 1413 1433 1432 
1452 1453 1492 1471 1493 1472 1473 1513 1532 
1533 1512 1573 1575 1554 1574 1555 1595 1594 
1615 1614 1654 1655 1634 1635 35 34 14 
15 55 75 54 74 95 114 115 94 
135 134 175 154 155 215 174 194 195 
255 234 235 254 214 274 295 275 294 
315 314 335 334 375 354 374 355 394 
395 414 415 434 435 454 455 475 494 
474 495 534 514 515 575 554 555 533 
574 594 615 595 614 635 634 655 654 
675 674 694 695 715 714 734 735 754 
774 755 775 794 814 815 795 855 854 
835 834 895 874 894 875 935 955 954 
934 915 974 975 994 995 1015 1014 1034 
1035 1055 1075 1074 1054 1136 1135 1094 1095 
1115 1154 1174 1175 1155 1214 1194 1215 1195 
1254 1255 1234 1235 1274 1275 1294 1295 1334 
1335 1314 1315 1375 1354 1374 1355 1415 1395 
1414 1394 1435 1454 1455 1434 1475 1495 1494 
1474 1535 1534 1514 1515 1577 1597 1576 1617 
1596 1637 1616 17 1656 1657 1636 37 57 
36 16 56 76 97 77 116 96 137 
117 136 157 176 177 156 197 216 196 
237 217 236 277 257 256 276 296 317 
297 336 357 337 316 356 376 397 377 
396 416 417 437 436 456 477 457 476 
517 497 496 536 535 537 516 556 576 
577 557 617 596 616 597 656 637 636 
657 697 676 696 677 757 717 737 716 
736 777 776 756 797 796 837 816 817 
877 856 857 836 897 916 937 896 917 
876 936 956 977 957 1017 997 996 976 
1057 1036 1037 1016 1077 1097 1096 1117 1076 
1056 1116 1137 1157 1176 1197 1156 1177 1217 
1216 1196 1237 1256 1257 1277 1236 1296 1297 
1317 1276 1316 1336 1357 1337 1377 1397 1376 
1356 1396 1416 1437 1417 1436 1457 1476 1456 
1477 1516 1497 1496 1517 1556 1557 1536 1537 
579 98 78 599 639 118 619 138 178 
679 158 659 218 719 699 198 238 759 
258 739 779 278 298 799 318 839 338 
819 879 358 378 859 899 398 919 418 
959 458 939 438 478 498 999 1019 979 
1039 518 538 1059 578 1079 558 1099 1119 
1139 598 618 638 1179 658 1159 678 1219 
698 1199 1239 738 718 1259 1279 758 778 
1299 1319 818 1339 798 1359 1399 838 858 
1379 878 1439 898 918 1419 1479 1459 958 
938 978 1499 998 1519 1018 1038 1559 1539 
1579 1098 1078 1599 1619 1058 1639 1659 1138 
1118 1178 39 1158 19 1218 59 79 1198 
1238 119 1258 99 1278 159 139 1298 199 
1338 179 1318 239 219 1358 1378 259 1398 
1418 279 319 299 1438 1458 359 1518 339 
1498 1478 379 1538 399 1558 1578 419 439 
1598 459 1618 479 1638 499 18 1658 519 
559 58 38 539 2400 2398 2401 2399 2404 
2403 2405 2402 2407 2406 2408 2409 2413 2411 
2412 2410 2415 2414 2417 2416 2420 2421 2419 
2418 2426 2424 2427 2423 2425 2422 2429 2430 
2428 2431 2434 2435 2433 2432 2439 2438 2436 
2437 2440 2441 2442 2443 2445 2446 2447 2444 
2449 2448 2450 2451 2455 2453 2454 2452 2458 
2456 2457 2459 2463 2461 2460 2462 2466 2464 
2465 2467 2469 2471 2470 2468 2473 2472 2474 
2475 2476 2479 2478 2477 2481 2480 2485 2484 
2483 2482 2488 2487 2489 2486 2493 2492 2490 
2491 2497 2496 2495 2494 2498 2499 2500 2501 
2503 2504 2502 2505 2509 2508 2507 2506 2511 
2510 2513 2512 2516 2514 2515 2517 2519 2521 
2518 2520 2523 2524 2525 2522 2527 2528 2529 
2526 2533 2532 2530 2531 2534 2535 2536 2537 
2538 2539 2543 2542 2541 2540 2544 2545 2546 
2547 2548 2551 2550 2549 2554 2555 2553 2552 
2558 2556 2557 2559 2560 2561 2562 2563 
FIELD FieldData 7
r 3 2798 float
-0.5375 -0.4625 0 -0.5125 -0.4875 0 -0.5125 -0.4625 0 
-0.5375 -0.4875 0 -0.487805 -0.4875 0 -0.487805 -0.4625 0 
-0.463415 -0.4875 0 -0.463415 -0.4625 0 -0.414634 -0.4625 0 
-0.439024 -0.4625 0 -0.414634 -0.4875 0 -0.439024 -0.4875 0 
-0.365854 -0.4625 0 -0.365854 -0.4875 0 -0.390244 -0.4625 0 
-0.390244 -0.4875 0 -0.341463 -0.4625 0 -0.341463 -0.4875 0 
-0.317073 -0.4625 0 -0.317073 -0.4875 0 -0.268293 -0.4875 0 
-0.292683 -0.4625 0 -0.292683 -0.4875 0 -0.268293 -0.4625 0 
-0.219512 -0.4875 0 -0.219512 -0.4625 0 -0.243902 -0.4875 0 
-0.243902 -0.4625 0 -0.195122 -0.4625 0 -0.170732 -0.4875 0 
-0.195122 -0.4875 0 -0.170732 -0.4625 0 -0.146341 -0.4625 0 
-0.121951 -0.4875 0 -0.121951 -0.4625 0 -0.146341 -0.4875 0 
-0.097561 -0.4625 0 -0.0731707 -0.4875 0 -0.097561 -0.4875 0 
-0.0731707 -0.4625 0 -1.86265e-08 -0.4625 0 -0.0487805 -0.4875 0 
-1.86265e-08 -0.4875 0 -0.0487805 -0.4625 0 -0.0243903 -0.4625 0 
-0.0243903 -0.4875 0 0.0243902 -0.4625 0 0.0487805 -0.4625 0 
0.0243902 -0.4875 0 0.0487805 -0.4875 0 0.097561 -0.4625 0 
0.0731707 -0.4625 0 0.0731707 -0.4875 0 0.097561 -0.4875 0 
0.121951 -0.4625 0 0.121951 -0.4875 0 0.146341 -0.4625 0 
0.146341 -0.4875 0 0.170732 -0.4875 0 0.195122 -0.4875 0 
0.170732 -0.4625 0 0.195122 -0.4625 0 0.219512 -0.4625 0 
0.219512 -0.4875 0 0.243902 -0.4625 0 0.243902 -0.4875 0 
0.268293 -0.4875 0 0.268293 -0.4625 0 0.292683 -0.4625 0 
0.292683 -0.4875 0 0.317073 -0.4875 0 0.341463 -0.4875 0 
0.317073 -0.4625 0 0.341463 -0.4625 0 0.365854 -0.4875 0 
0.390244 -0.4875 0 0.365854 -0.4625 0 0.390244 -0.4625 0 
0.414634 -0.4625 0 0.439024 -0.4875 0 0.414634 -0.4875 0 
0.439024 -0.4625 0 0.487805 -0.4875 0 0.487805 -0.4625 0 
0.463415 -0.4875 0 0.463415 -0.4625 0 0.5375 -0.4625 0 
0.5125 -0.4625 0 0.5375 -0.4875 0 0.5125 -0.4875 0 
-0.5125 -0.4375 0 -0.5125 -0.4125 0 -0.5375 -0.4125 0 
-0.5375 -0.4375 0 -0.464112 -0.435048 0 -0.488123 -0.412662 0 
-0.466615 -0.405495 0 -0.48718 -0.43756 0 -0.440502 -0.438004 0 
-0.444556 -0.412546 0 -0.416405 -0.435569 0 -0.42051 -0.410786 0 
-0.394121 -0.437821 0 -0.366414 -0.43785 0 -0.379601 -0.418268 0 
-0.39937 -0.4049 0 -0.300108 -0.410178 0 -0.342451 -0.437286 0 
-0.323613 -0.411231 0 -0.318296 -0.437009 0 -0.347354 -0.413032 0 
-0.277413 -0.410191 0 -0.255261 -0.408233 0 -0.271605 -0.436689 0 
-0.294898 -0.436635 0 -0.211143 -0.410144 0 -0.249102 -0.435789 0 
-0.233315 -0.409036 0 -0.203454 -0.436706 0 -0.226572 -0.436647 0 
-0.188777 -0.409471 0 -0.166099 -0.410441 0 -0.15744 -0.436974 0 
-0.180593 -0.436445 0 -0.143012 -0.411359 0 -0.109578 -0.437588 0 
-0.133737 -0.437344 0 -0.119606 -0.412028 0 -0.0852826 -0.437529 0 
-0.0959487 -0.412288 0 -0.0608716 -0.437738 0 -0.0719186 -0.412549 0 
-0.0209459 -0.414907 0 -0.009908 -0.438238 0 -0.0355532 -0.438282 0 
-0.0468078 -0.41436 0 0.00498427 -0.414469 0 0.0311396 -0.414938 0 
0.040992 -0.438304 0 0.0154695 -0.43811 0 0.085645 -0.416643 0 
0.0577886 -0.415538 0 0.0932913 -0.43883 0 0.0668606 -0.438327 0 
0.14475 -0.438168 0 0.119332 -0.438413 0 0.112434 -0.415493 0 
0.138246 -0.414347 0 0.194274 -0.417081 0 0.17124 -0.438584 0 
0.165194 -0.416595 0 0.197971 -0.439002 0 0.247029 -0.41476 0 
0.224813 -0.438878 0 0.221416 -0.416094 0 0.25088 -0.438472 0 
0.277523 -0.438854 0 0.272971 -0.416559 0 0.300884 -0.417057 0 
0.332289 -0.439403 0 0.328802 -0.417904 0 0.304574 -0.439013 0 
0.386944 -0.438516 0 0.360104 -0.439237 0 0.356829 -0.417719 0 
0.384465 -0.416124 0 0.41176 -0.415897 0 0.413097 -0.438619 0 
0.438307 -0.41558 0 0.439135 -0.438635 0 0.488337 -0.413029 0 
0.463911 -0.413218 0 0.488563 -0.437934 0 0.464223 -0.437688 0 
0.5125 -0.4125 0 0.5125 -0.4375 0 0.5375 -0.4125 0 
0.5375 -0.4375 0 -0.5125 -0.3625 0 -0.5125 -0.3875 0 
-0.5375 -0.3625 0 -0.5375 -0.3875 0 -0.489029 -0.386048 0 
-0.490068 -0.356175 0 -0.470143 -0.373505 0 -0.454226 -0.353681 0 
-0.449526 -0.384974 0 -0.432615 -0.360546 0 -0.406665 -0.373234 0 
-0.425854 -0.38609 0 -0.369288 -0.365682 0 -0.389588 -0.35244 0 
-0.385774 -0.384431 0 -0.364732 -0.398789 0 -0.328518 -0.35976 0 
-0.306322 -0.356829 0 -0.349126 -0.380036 0 -0.327578 -0.386946 0 
-0.304211 -0.383409 0 -0.25917 -0.380957 0 -0.260762 -0.353773 0 
-0.28328 -0.356555 0 -0.281488 -0.38337 0 -0.216534 -0.35498 0 
-0.215127 -0.382708 0 -0.237071 -0.380967 0 -0.238501 -0.353269 0 
-0.171717 -0.35674 0 -0.194301 -0.35539 0 -0.170226 -0.383653 0 
-0.19289 -0.382408 0 -0.102619 -0.360945 0 -0.147254 -0.385078 0 
-0.149059 -0.358538 0 -0.123934 -0.386009 0 -0.100392 -0.386651 0 
-0.126087 -0.359893 0 -0.0515747 -0.390152 0 -0.0537864 -0.365781 0 
-0.0786163 -0.362085 0 -0.0764343 -0.387321 0 -0.0287492 -0.367007 0 
-0.00405187 -0.366565 0 -0.0263536 -0.391287 0 -0.00114181 -0.390853 0 
0.0213206 -0.367912 0 0.0474194 -0.369079 0 0.0244534 -0.391513 0 
0.0771179 -0.394838 0 0.0734838 -0.371834 0 0.0503449 -0.392554 0 
0.0986913 -0.369456 0 0.14865 -0.371364 0 0.123116 -0.366162 0 
0.128606 -0.390943 0 0.103386 -0.392919 0 0.156109 -0.39387 0 
0.176812 -0.374747 0 0.184194 -0.396968 0 0.195554 -0.35108 0 
0.169485 -0.352089 0 0.203397 -0.374645 0 0.240803 -0.39162 0 
0.219375 -0.350149 0 0.213415 -0.394569 0 0.231665 -0.370885 0 
0.293812 -0.39562 0 0.25027 -0.351971 0 0.262394 -0.37101 0 
0.267651 -0.39299 0 0.282949 -0.351325 0 0.290635 -0.37176 0 
0.317843 -0.352994 0 0.315523 -0.375309 0 0.343687 -0.375423 0 
0.322934 -0.396644 0 0.343299 -0.352927 0 0.371498 -0.351104 0 
0.351546 -0.396505 0 0.37933 -0.394609 0 0.398826 -0.373573 0 
0.398896 -0.352056 0 0.370769 -0.37311 0 0.427962 -0.3519 0 
0.427091 -0.372892 0 0.436425 -0.393332 0 0.407924 -0.394393 0 
0.484503 -0.36656 0 0.488334 -0.388511 0 0.462674 -0.389374 0 
0.454971 -0.368051 0 0.5125 -0.3875 0 0.5375 -0.3625 0 
0.5375 -0.3875 0 0.5125 -0.3625 0 -0.5125 -0.3125 0 
-0.5125 -0.3375 0 -0.5375 -0.3375 0 -0.5375 -0.3125 0 
-0.468577 -0.304752 0 -0.489898 -0.322974 0 -0.453424 -0.32273 0 
-0.473297 -0.338937 0 -0.411207 -0.315464 0 -0.431973 -0.304018 0 
-0.432981 -0.332498 0 -0.411987 -0.344989 0 -0.372755 -0.304854 0 
-0.350899 -0.317402 0 -0.36892 -0.335028 0 -0.390663 -0.324437 0 
-0.34947 -0.349716 0 -0.314244 -0.304894 0 -0.308985 -0.330631 0 
-0.331235 -0.330523 0 -0.285539 -0.329956 0 -0.262711 -0.327013 0 
-0.290528 -0.304045 0 -0.267067 -0.301003 0 -0.218055 -0.326992 0 
-0.24008 -0.325722 0 -0.199655 -0.300176 0 -0.177612 -0.302156 0 
-0.196073 -0.328154 0 -0.173673 -0.329564 0 -0.151129 -0.331397 0 
-0.154788 -0.304372 0 -0.109567 -0.308825 0 -0.12873 -0.333152 0 
-0.105697 -0.335119 0 -0.132094 -0.305613 0 -0.0563982 -0.3413 0 
-0.0852771 -0.312117 0 -0.0815302 -0.33687 0 -0.0593286 -0.317146 0 
-0.00720265 -0.341336 0 -0.0313477 -0.342531 0 -0.0338229 -0.318203 0 