# vtk DataFile Version 4.0
vtk output
ASCII
DATASET POLYDATA
FIELD FieldData 4
domain 1 3 string
domain_min:-20|-15
domain_max:20|15
cell_size:0.05

variables 1 2 string
dt:0.000372678
T:1.69038

constants 1 10 string
xsize:2
ysize:1
csize:0.05
dx:0.0238095
h:0.025
rho0:1000
mass:0.566894
g:1|0
c:13.4164
CFL:0.2

functions 1 8 string
time:T=(T+dt)
continuity:rho_dot=((-(rho*sph_D00(v,mass,rho,Wp52220)))+(((0.1*c)*h)*sph_L00(rho,mass,rho,Wp52220)))
irho:rho=(rho+int1((rho_dot,dt))
EOS:p=(((c^2)*(rho-rho0))+10000)
euler:a=if((gid,(0*v),(((-((1/rho)*sph_G11(p,mass,rho,Wp52220)))+(0.01*sph_L00(v,mass,rho,Wp52220)))+g))
vel:v=(v+int1((a,dt))
pos:r=(r+int1((v,dt))
new_dt:dt=(CFL*min((sqrt(((h/fmax(magnitude((a)))),(h/c)))

POINTS 2798 float
-0.5125 -0.4875 0 -0.5375 -0.4625 0 -0.5375 -0.4875 0 
-0.5125 -0.4625 0 -0.487805 -0.4875 0 -0.487805 -0.4625 0 
-0.463415 -0.4875 0 -0.463415 -0.4625 0 -0.439024 -0.4875 0 
-0.414634 -0.4875 0 -0.414634 -0.4625 0 -0.439024 -0.4625 0 
-0.365854 -0.4875 0 -0.365854 -0.4625 0 -0.390244 -0.4625 0 
-0.390244 -0.4875 0 -0.341463 -0.4625 0 -0.317073 -0.4625 0 
-0.341463 -0.4875 0 -0.317073 -0.4875 0 -0.268293 -0.4625 0 
-0.292683 -0.4625 0 -0.292683 -0.4875 0 -0.268293 -0.4875 0 
-0.219512 -0.4875 0 -0.219512 -0.4625 0 -0.243902 -0.4625 0 
-0.243902 -0.4875 0 -0.170732 -0.4875 0 -0.195122 -0.4875 0 
-0.170732 -0.4625 0 -0.195122 -0.4625 0 -0.121951 -0.4875 0 
-0.146341 -0.4625 0 -0.146341 -0.4875 0 -0.121951 -0.4625 0 
-0.097561 -0.4875 0 -0.097561 -0.4625 0 -0.0731707 -0.4875 0 
-0.0731707 -0.4625 0 -0.0243903 -0.4875 0 -0.0243903 -0.4625 0 
-1.86265e-08 -0.4625 0 -0.0487805 -0.4875 0 -0.0487805 -0.4625 0 
-1.86265e-08 -0.4875 0 0.0487805 -0.4625 0 0.0243902 -0.4875 0 
0.0487805 -0.4875 0 0.0243902 -0.4625 0 0.0731707 -0.4875 0 
0.097561 -0.4625 0 0.0731707 -0.4625 0 0.097561 -0.4875 0 
0.146341 -0.4625 0 0.121951 -0.4625 0 0.146341 -0.4875 0 
0.121951 -0.4875 0 0.170732 -0.4625 0 0.195122 -0.4625 0 
0.195122 -0.4875 0 0.170732 -0.4875 0 0.219512 -0.4875 0 
0.219512 -0.4625 0 0.243902 -0.4875 0 0.243902 -0.4625 0 
0.292683 -0.4625 0 0.292683 -0.4875 0 0.268293 -0.4625 0 
0.268293 -0.4875 0 0.317073 -0.4875 0 0.341463 -0.4625 0 
0.317073 -0.4625 0 0.341463 -0.4875 0 0.390244 -0.4625 0 
0.390244 -0.4875 0 0.365854 -0.4875 0 0.365854 -0.4625 0 
0.414634 -0.4875 0 0.439024 -0.4875 0 0.414634 -0.4625 0 
0.439024 -0.4625 0 0.463415 -0.4625 0 0.487805 -0.4875 0 
0.487805 -0.4625 0 0.463415 -0.4875 0 0.5375 -0.4625 0 
0.5125 -0.4875 0 0.5125 -0.4625 0 0.5375 -0.4875 0 
-0.5375 -0.4375 0 -0.5125 -0.4125 0 -0.5375 -0.4125 0 
-0.5125 -0.4375 0 -0.489122 -0.408708 0 -0.489065 -0.43614 0 
-0.466183 -0.436772 0 -0.466509 -0.410408 0 -0.419244 -0.437186 0 
-0.443693 -0.410496 0 -0.442851 -0.436855 0 -0.420423 -0.411462 0 
-0.350187 -0.437879 0 -0.372755 -0.435621 0 -0.396695 -0.411347 0 
-0.373399 -0.408799 0 -0.351154 -0.409793 0 -0.395536 -0.437312 0 
-0.329275 -0.404176 0 -0.32948 -0.43223 0 -0.307112 -0.411911 0 
-0.307956 -0.439449 0 -0.265894 -0.437936 0 -0.28595 -0.402273 0 
-0.286631 -0.431959 0 -0.264448 -0.411057 0 -0.242562 -0.436612 0 
-0.219683 -0.436288 0 -0.21762 -0.411579 0 -0.241894 -0.410039 0 
-0.196651 -0.438864 0 -0.162977 -0.439117 0 -0.167043 -0.403076 0 
-0.196648 -0.40597 0 -0.179684 -0.424945 0 -0.139707 -0.436139 0 
-0.10185 -0.406967 0 -0.117276 -0.436742 0 -0.146935 -0.411984 0 
-0.123625 -0.409266 0 -0.0960416 -0.434797 0 -0.0793037 -0.410322 0 
-0.0559114 -0.412654 0 -0.0739669 -0.437523 0 -0.050123 -0.437394 0 
-0.00599937 -0.437289 0 -0.0118099 -0.410427 0 -0.0338675 -0.406451 0 
-0.0282792 -0.435049 0 0.0164947 -0.43612 0 0.0394745 -0.437547 0 
0.0336695 -0.411182 0 0.0106193 -0.409225 0 0.0794172 -0.406968 0 
0.0623078 -0.435279 0 0.0575834 -0.410169 0 0.0845725 -0.438918 0 
0.0996906 -0.42161 0 0.139647 -0.436499 0 0.115071 -0.439019 0 
0.111466 -0.400796 0 0.131022 -0.413633 0 0.184935 -0.436631 0 
0.153753 -0.407262 0 0.175249 -0.41111 0 0.161928 -0.436325 0 
0.233576 -0.438426 0 0.200099 -0.411846 0 0.20829 -0.437745 0 
0.224706 -0.415014 0 0.257968 -0.436589 0 0.281412 -0.437864 0 
0.279498 -0.41304 0 0.250947 -0.413377 0 0.302868 -0.414171 0 
0.332173 -0.438339 0 0.328138 -0.414998 0 0.306551 -0.438558 0 
0.356701 -0.415345 0 0.388265 -0.416343 0 0.381917 -0.437955 0 
0.357099 -0.437667 0 0.436304 -0.406174 0 0.437081 -0.43988 0 
0.408641 -0.439276 0 0.418549 -0.419598 0 0.454654 -0.425445 0 
0.463606 -0.402587 0 0.485376 -0.407641 0 0.490538 -0.431018 0 
0.471286 -0.440554 0 0.5375 -0.4375 0 0.5125 -0.4125 0 
0.5375 -0.4125 0 0.5125 -0.4375 0 -0.5375 -0.3625 0 
-0.5125 -0.3875 0 -0.5375 -0.3875 0 -0.5125 -0.3625 0 
-0.467003 -0.383631 0 -0.489302 -0.381038 0 -0.489491 -0.353459 0 
-0.465385 -0.357544 0 -0.422517 -0.385508 0 -0.44479 -0.38291 0 
-0.420646 -0.360415 0 -0.443045 -0.353972 0 -0.350853 -0.382362 0 
-0.364413 -0.359173 0 -0.398698 -0.38606 0 -0.394668 -0.362183 0 
-0.374667 -0.382739 0 -0.322343 -0.353373 0 -0.33013 -0.375455 0 
-0.308377 -0.38438 0 -0.268347 -0.382531 0 -0.262534 -0.357577 0 
-0.299379 -0.350657 0 -0.289407 -0.371498 0 -0.221422 -0.386008 0 
-0.205284 -0.371804 0 -0.245252 -0.384092 0 -0.237002 -0.360227 0 
-0.169633 -0.364713 0 -0.190517 -0.351946 0 -0.184993 -0.38497 0 
-0.153104 -0.381798 0 -0.113668 -0.357412 0 -0.130027 -0.384884 0 
-0.105908 -0.379614 0 -0.138183 -0.358805 0 -0.0588024 -0.387143 0 
-0.0803301 -0.35954 0 -0.0828618 -0.383596 0 -0.0573077 -0.360186 0 
-0.03236 -0.350835 0 -0.0368226 -0.377976 0 -0.0149632 -0.382791 0 
-0.0107376 -0.355642 0 0.0339076 -0.359395 0 0.0115009 -0.35516 0 
0.00738129 -0.382404 0 0.0303701 -0.384408 0 0.0542055 -0.35139 0 
0.0982398 -0.362487 0 0.0534089 -0.38531 0 0.0699413 -0.371405 0 
0.0890835 -0.385904 0 0.141035 -0.385313 0 0.122992 -0.353015 0 
0.145188 -0.35761 0 0.118712 -0.378503 0 0.195525 -0.364815 0 
0.173654 -0.35452 0 0.184567 -0.387631 0 0.163427 -0.378205 0 
0.24874 -0.373104 0 0.235074 -0.391632 0 0.210843 -0.38849 0 
0.220374 -0.364676 0 0.295883 -0.361089 0 0.28489 -0.381807 0 
0.265398 -0.393367 0 0.267204 -0.360042 0 0.33847 -0.39485 0 
0.330061 -0.354799 0 0.321298 -0.37453 0 0.306999 -0.391775 0 
0.380619 -0.378121 0 0.359421 -0.356603 0 0.351812 -0.376615 0 
0.370437 -0.397857 0 0.430862 -0.360723 0 0.447213 -0.383059 0 
0.421024 -0.384219 0 0.400338 -0.368433 0 0.402504 -0.398322 0 
0.489323 -0.3834 0 0.469358 -0.372965 0 0.489725 -0.355281 0 
0.452101 -0.353877 0 0.5125 -0.3625 0 0.5375 -0.3875 0 
0.5375 -0.3625 0 0.5125 -0.3875 0 -0.5125 -0.3125 0 
-0.5125 -0.3375 0 -0.5375 -0.3375 0 -0.5375 -0.3125 0 
-0.468678 -0.332709 0 -0.489383 -0.323863 0 -0.465689 -0.304594 0 
-0.404209 -0.337883 0 -0.401247 -0.312878 0 -0.426727 -0.331622 0 
-0.446789 -0.323513 0 -0.423662 -0.304032 0 -0.376915 -0.316725 0 
-0.354105 -0.323586 0 -0.378963 -0.340986 0 -0.345488 -0.347445 0 
-0.328934 -0.325302 0 -0.306193 -0.326104 0 -0.276787 -0.340381 0 
-0.262428 -0.314997 0 -0.284897 -0.315575 0 -0.202734 -0.327562 0 
-0.217956 -0.348605 0 -0.243755 -0.302108 0 -0.247599 -0.335547 0 
-0.227476 -0.323024 0 -0.193469 -0.304276 0 -0.176926 -0.330997 0 
-0.16871 -0.308542 0 -0.156285 -0.343028 0 -0.120773 -0.302056 0 
-0.145642 -0.318603 0 -0.128023 -0.33402 0 -0.107736 -0.320462 0 
-0.0730448 -0.33107 0 -0.0959462 -0.342249 0 -0.0610176 -0.304716 0 
-0.0858819 -0.309832 0 -0.0510482 -0.334677 0 -0.0386901 -0.31166 0 
-0.00479993 -0.30178 0 -0.0210462 -0.326139 0 0.0405301 -0.302226 0 
0.00124818 -0.32833 0 0.0464973 -0.327464 0 0.0241825 -0.330725 0 
0.0180179 -0.303108 0 0.0709067 -0.323169 0 0.0792815 -0.345908 0 
0.0944223 -0.312751 0 0.14612 -0.315336 0 0.117929 -0.304513 0 
0.102256 -0.334961 0 0.126767 -0.328878 0 0.180637 -0.326969 0 
0.156702 -0.336594 0 0.168343 -0.305223 0 0.234931 -0.31093 0 
0.220545 -0.330491 0 0.200693 -0.341601 0 0.237556 -0.349632 0 
0.201665 -0.311886 0 0.251992 -0.331839 0 0.260412 -0.307241 0 
0.282965 -0.318123 0 0.276431 -0.339383 0 0.332732 -0.312247 0 
0.310545 -0.321038 0 0.306002 -0.34205 0 0.338761 -0.335084 0 
0.394217 -0.307027 0 0.363488 -0.308436 0 0.36272 -0.329441 0 
0.381483 -0.348568 0 0.391897 -0.327355 0 0.422626 -0.328043 0 
0.422375 -0.306331 0 0.445374 -0.329866 0 0.410841 -0.346952 0 
0.464963 -0.313425 0 0.471649 -0.340314 0 0.489926 -0.325155 0 
0.487355 -0.300343 0 0.5125 -0.3125 0 0.5375 -0.3125 0 
0.5375 -0.3375 0 0.5125 -0.3375 0 -0.5125 -0.2875 0 
-0.5375 -0.2625 0 -0.5125 -0.2625 0 -0.5375 -0.2875 0 
-0.490019 -0.296103 0 -0.490773 -0.2608 0 -0.456668 -0.26509 0 
-0.474425 -0.278651 0 -0.414204 -0.279006 0 -0.44526 -0.293679 0 
-0.409112 -0.250688 0 -0.434614 -0.270096 0 -0.365906 -0.264815 0 
-0.370403 -0.290853 0 -0.393333 -0.288791 0 -0.389265 -0.262557 0 
-0.349043 -0.297665 0 -0.304615 -0.29698 0 -0.3436 -0.270623 0 
-0.32143 -0.273006 0 -0.326724 -0.29986 0 -0.28044 -0.2552 0 
-0.298595 -0.267647 0 -0.282284 -0.28842 0 -0.257772 -0.258338 0 
-0.262106 -0.282903 0 -0.232757 -0.254175 0 -0.216752 -0.299373 0 
-0.211556 -0.272455 0 -0.235594 -0.278862 0 -0.183927 -0.253219 0 
-0.161286 -0.25927 0 -0.166279 -0.283662 0 -0.189742 -0.27919 0 
-0.118188 -0.251998 0 -0.1431 -0.293109 0 -0.138207 -0.268526 0 
-0.114589 -0.278122 0 -0.0932059 -0.287675 0 -0.0664227 -0.257031 0 
-0.0700732 -0.280527 0 -0.0931463 -0.260399 0 -0.0408442 -0.257165 0 
-0.0180574 -0.261941 0 -0.0237568 -0.290014 0 -0.0449871 -0.281715 0 
0.00116743 -0.274822 0 0.0486364 -0.276409 0 0.0240734 -0.276972 0 
0.0335813 -0.252977 0 0.0934547 -0.260633 0 0.0641026 -0.299316 0 
0.0853615 -0.289527 0 0.0704472 -0.268377 0 0.140313 -0.291194 0 
0.129131 -0.269646 0 0.108155 -0.281963 0 0.150222 -0.257389 0 
0.162243 -0.279474 0 0.180678 -0.263337 0 0.187786 -0.29177 0 
0.230459 -0.270378 0 0.247947 -0.285895 0 0.218649 -0.293672 0 
0.20357 -0.272591 0 0.264338 -0.267097 0 0.27807 -0.289036 0 
0.292328 -0.26847 0 0.315689 -0.28268 0 0.307718 -0.250332 0 
0.339993 -0.292657 0 0.301263 -0.299041 0 0.328685 -0.262637 0 
[...]
POINT_DATA 2798
SCALARS id float
LOOKUP_TABLE default
2620 2601 2600 2621 2640 2641 2642 2643 2644 
2646 2647 2645 2650 2651 2649 2648 2653 2655 
2652 2654 2659 2657 2656 2658 2662 2663 2661 
2660 2666 2664 2667 2665 2670 2669 2668 2671 
2672 2673 2674 2675 2678 2679 2681 2676 2677 
2680 2685 2682 2684 2683 2686 2689 2687 2688 
2693 2691 2692 2690 2695 2697 2696 2694 2698 
2699 2700 2701 2705 2704 2703 2702 2706 2709 
2707 2708 2713 2712 2710 2711 2714 2716 2715 
2717 2719 2720 2721 2718 2743 2722 2723 2742 
2602 2623 2603 2622 1661 1660 1678 1697 1714 
1715 1696 1750 1804 1786 1768 1823 1822 1732 
1877 1840 1913 1858 1894 1931 1876 1949 1912 
1930 1985 1967 1948 1984 2057 2003 1966 2020 
2129 2038 2093 2111 2056 2147 2165 2074 2092 
2128 2183 2184 2110 2146 2164 2219 2201 2255 
2182 2237 2200 2218 2254 2236 2273 2291 2290 
2310 2329 2272 2308 2328 2309 2330 2327 2326 
2347 2331 2350 2348 2349 2346 2365 2364 2344 
2345 2383 2380 2362 2363 2382 2367 2385 2384 
2381 2744 2725 2745 2724 2605 2624 2604 2625 
1679 1662 1698 1716 1787 1733 1806 1769 1859 
1842 1805 1824 1841 1896 1895 1914 1950 2005 
1933 1932 2004 2021 1986 2022 2039 2058 2002 
2075 2131 2112 2130 2094 2166 2167 2148 2185 
2222 2203 2202 2221 2257 2239 2220 2238 2276 
2293 2256 2275 2274 2311 2295 2296 2292 2315 
2314 2313 2312 2317 2316 2332 2300 2335 2334 
2333 2336 2351 2318 2353 2352 2369 2284 2354 
2366 2371 2386 2370 2372 2368 2387 2389 2388 
2390 2727 2746 2747 2726 2627 2626 2606 2607 
1734 1680 1752 1825 1844 1788 1751 1807 1862 
1861 1843 1860 1878 1915 1968 1987 1951 2059 
2040 2024 2023 2041 2078 2077 2096 2076 2132 
2095 2113 2150 2186 2149 2205 2168 2204 2206 
2224 2223 2242 2240 2259 2258 2241 2277 2294 
2279 2281 2280 2278 2297 2299 2298 2264 2125 
2247 2282 2283 2265 2230 21 2142 2266 1481 
1875 2248 2195 1620 60 1461 2337 340 2090 
0 2231 2267 280 2391 2355 2301 2729 2749 
2748 2728 2628 2609 2629 2608 1717 1663 1771 
1735 1826 1770 1863 1789 1898 1880 1881 1899 
1879 1934 1916 1953 1897 1988 1970 1952 2006 
1969 2043 2060 2061 2042 2080 2098 2097 2079 
2116 2114 2115 2133 2169 2188 2187 2151 2189 
2191 2207 2190 2208 2243 2225 2174 2245 2260 
2261 2244 2246 2263 2262 2211 2194 2054 2229 
1929 2018 2212 2072 1522 1441 120 1521 140 
100 1362 1561 1301 1161 20 1460 1420 1101 
1281 2213 1122 1341 1221 2373 320 2731 2751 
2750 2730 2611 2630 2610 2631 1753 1790 1699 
1718 1772 1882 1845 1808 1900 1901 1918 1917 
1972 1954 1935 1971 2008 2007 1989 2025 2044 
2045 2062 2026 2063 2046 2028 2081 2117 2064 
2099 2082 2135 2134 2170 2173 2152 2172 2155 
2156 2123 2209 2140 2139 2227 2158 2192 2226 
2210 2193 2175 2053 2228 2070 2177 2036 2124 
2159 2176 2035 1821 1581 1893 1946 1838 2107 
1911 1361 1 1803 180 1541 1928 40 1181 
1201 1540 1141 1400 1321 1440 1183 2733 2753 
2752 2732 2632 2613 2612 2633 1700 1664 1681 
1719 1754 1827 1809 1736 1883 1902 1846 1919 
1864 1937 1936 1938 1955 1973 1990 1956 1974 
2009 1991 1992 2027 1977 1905 1993 2010 1959 
2029 2047 2011 2065 2012 2030 2083 2100 2136 
2101 2153 2171 2138 2137 2154 2119 2089 2141 
2157 2122 2087 2071 2052 2105 2033 2106 2050 
2088 2000 2051 1839 2069 2017 1964 2034 1857 
1998 1982 1731 1981 1600 1963 160 1910 1580 
1820 1261 1241 1520 1040 1766 1121 1081 1001 
2734 2754 2755 2735 2634 2614 2615 2635 1665 
1737 1683 1682 1701 1865 1847 1791 1828 1866 
1884 1885 1867 1868 1920 1903 1921 1940 1957 
1939 1976 1924 1887 1975 1923 1871 1834 1958 
1835 1852 1817 1781 1711 1941 1995 1798 1994 
1906 1925 1960 2048 2014 2066 2120 1944 2013 
2103 2084 2121 2049 2118 2085 2068 2086 2104 
2102 2032 2067 80 2015 1908 1999 1890 1785 
1856 1693 1980 2016 1837 462 1926 1749 900 
1892 1942 1802 1853 1560 1784 1712 1729 1873 
1713 1767 2736 2757 2756 2737 2637 2636 2616 
2617 1667 1720 1666 1702 1810 1773 1755 1792 
1830 1829 1811 1848 1849 1812 1831 1793 1869 
1904 1813 1794 1870 1886 1832 1775 1922 1850 
1795 1851 1816 1779 1727 1815 1780 1673 1689 
1797 2361 1746 1674 1745 1691 1799 1708 1814 
1100 1888 2031 1978 1140 1961 1996 1943 1709 
1927 1997 1962 1695 1874 1945 1889 1710 820 
1180 1979 1728 762 2325 1909 1676 2271 1120 
1080 1783 2288 1675 542 1891 1220 1819 1300 
1818 2739 2738 2759 2758 2566 2564 2567 2565 
2568 2570 2569 2571 2572 2574 2575 2573 2576 
2579 2577 2578 2580 2582 2581 2583 2586 2585 
2584 2587 2589 2590 2588 2591 2595 2593 2594 
2592 2596 2598 2599 2597 2619 2639 2638 2618 
1684 1669 1668 1685 1738 1774 1703 240 1721 
1756 1704 2143 1686 2356 1757 1758 1722 2250 
1670 2374 1739 2215 1741 1740 2126 1776 2234 
1760 1523 1723 1777 2251 1502 2357 1283 1742 
1705 1778 1687 2375 2376 1796 1833 1744 1726 
2323 2359 1762 1671 1724 2198 1761 2179 2377 
1725 640 1707 2343 2396 2394 1688 800 1743 
2235 2253 2270 2306 1763 1672 2145 461 2287 
1020 2019 840 163 1060 2341 2199 761 601 
2037 2397 1480 2740 2761 2741 2760 2764 2762 
2763 2765 2766 2769 2768 2767 2773 2770 2772 
2771 2774 2777 2775 2776 2780 2779 2781 2778 
2783 2782 2785 2784 2789 2786 2787 2788 2791 
2793 2792 2790 2796 2797 2794 2795 1782 1320 
541 822 363 1694 921 1102 1677 941 1340 
981 381 701 1062 1240 2285 423 1202 682 
1021 402 1401 2178 861 641 2319 1262 1601 
980 901 1222 2160 742 801 1000 220 404 
2249 2338 783 260 1061 843 960 1142 2392 
1282 2320 781 962 883 2232 1182 903 2214 
1421 1381 2302 1543 1184 922 2303 1322 1402 
1043 1243 1947 923 1342 1203 1022 1621 1759 
1023 1162 1003 2305 2216 1123 1303 201 2252 
1582 983 2358 1223 181 806 41 1542 2161 
1185 161 1144 2163 2395 2196 2339 2393 1422 
1483 2360 2304 2233 2180 2108 1983 2321 1544 
2055 2307 341 1602 2109 2197 1706 1564 1801 
162 1855 2289 680 1690 2378 421 2342 460 
1500 2217 520 1730 780 223 1748 1836 1765 
2091 561 720 1380 482 1907 881 1872 1800 
1200 1747 862 1764 1242 1041 263 1854 802 
1260 1692 560 1605 620 362 540 101 302 
241 123 4 422 600 1585 521 321 62 
2181 501 144 124 721 740 920 442 264 
361 262 282 401 242 24 85 722 463 
621 222 283 224 323 661 403 760 880 
382 383 343 304 344 940 681 703 364 
245 284 522 325 782 602 582 305 841 
583 741 702 961 683 1082 662 622 1002 
804 563 942 821 803 723 763 664 823 
642 1063 1640 744 663 863 982 1103 1382 
625 1204 1083 864 1163 1044 764 902 1042 
943 825 844 963 884 786 785 904 300 
1024 1105 766 1143 1064 1302 1124 1004 1263 
984 1045 1104 1145 964 925 1641 1501 200 
1106 1562 1482 1383 1363 1264 141 1224 660 
1344 143 360 42 1463 1225 2268 61 1443 
81 1404 2324 480 500 1424 2340 261 182 
83 1385 860 22 3 2269 2127 420 2322 
1643 104 2379 281 2286 441 1360 1280 1160 
63 43 700 221 481 103 122 1623 142 
102 1545 1603 1565 2 1584 1485 1504 1525 
1465 1505 1624 44 301 105 25 45 26 
580 6 1645 64 5 1547 184 1567 27 
66 183 203 204 165 342 244 166 443 
243 324 303 205 225 322 147 185 285 
186 365 266 206 483 502 345 581 424 
405 444 562 385 386 366 643 326 503 
464 543 544 603 684 623 624 743 824 
645 604 565 704 882 842 584 605 665 
585 526 566 724 546 784 626 685 705 
646 745 805 725 845 746 765 924 885 
865 905 787 866 944 807 867 1025 985 
1084 886 945 1164 906 1086 1442 965 1065 
1125 1244 1085 1563 1343 2162 1087 1366 1126 
1503 1462 1165 1403 1423 1364 1186 1323 1365 
1345 1304 1384 1524 23 1227 400 2073 2001 
121 1642 440 82 1644 84 1965 1604 380 
1305 1583 1267 1247 1464 1228 1306 1405 1406 
1444 1425 1386 1367 1387 1347 1426 1484 1466 
1446 1445 1427 1486 1428 1487 1546 1625 1467 
1566 1506 1586 1606 1507 1527 1526 1626 65 
1647 1646 46 1607 86 1627 7 202 47 
67 87 146 164 145 125 106 126 127 
226 167 88 286 187 246 265 207 227 
208 189 384 346 209 228 306 287 523 
247 307 267 327 484 406 288 504 425 
328 644 524 347 445 485 564 407 465 
446 505 426 427 525 545 486 466 547 
487 507 506 586 567 606 686 666 627 
687 607 647 726 706 826 747 707 846 
668 727 708 788 688 767 887 848 827 
847 869 868 849 907 768 926 986 1066 
966 1026 1047 946 1046 947 1205 1005 1006 
967 1007 948 987 1067 1107 1027 1226 1088 
1265 1245 1284 1206 1207 2144 1128 1285 1166 
1622 1324 1187 1325 1346 1266 1286 1168 1188 
1209 1189 1229 1210 1287 1326 1248 1268 1288 
1307 1308 1368 1328 1327 1407 1329 1348 1388 
1349 1408 1447 1369 1468 1449 1448 1429 1409 
1469 1489 1488 1508 1587 1529 1509 1528 1548 
1608 1568 1549 1588 1569 1589 1648 1628 28 
1629 1649 1609 8 29 48 49 9 107 
68 30 108 69 168 128 148 188 129 
150 149 169 229 170 190 210 268 249 
248 250 269 308 289 309 329 290 348 
310 367 349 368 387 369 388 408 409 
447 448 428 467 468 488 449 469 527 
508 548 587 549 588 568 528 589 608 
667 569 609 628 629 648 630 650 669 
649 689 728 709 748 729 749 808 769 
888 789 829 828 889 809 850 870 830 
908 927 909 890 910 928 929 968 949 
1008 1068 988 1028 1146 1089 1108 1048 1069 
1127 1049 1147 1109 1090 1110 1167 1148 1208 
1246 1129 1150 1149 1132 1131 1151 1190 1211 
1170 1169 1230 1250 1249 1269 1291 1290 1309 
1289 1310 1330 1331 1311 1351 1332 1370 1350 
1410 1371 1389 1390 1450 1451 1431 1430 1411 
1491 1471 1490 1470 1510 1511 1531 1530 1570 
1550 1571 1551 1590 1591 1610 1611 1650 1630 
1651 1631 50 31 51 10 11 90 70 
89 109 130 111 110 171 132 151 131 
152 230 172 191 211 232 212 231 271 
251 270 311 292 291 330 331 350 389 
390 370 371 429 410 411 391 430 450 
431 491 509 489 470 490 510 529 530 
511 571 570 551 550 611 590 591 610 
631 651 670 691 690 671 711 731 710 
730 751 791 771 750 770 811 790 831 
810 851 871 852 891 892 872 911 930 
912 931 950 970 969 1009 971 989 991 
990 1029 1030 1010 1011 1031 1071 1070 1050 
1051 1111 1130 1112 1092 1091 1134 1152 1133 
1153 1192 1172 1171 1191 1212 1233 1232 1231 
1251 1272 1271 1270 1312 1292 1313 1293 1333 
1353 1352 1372 1392 1391 1373 1413 1412 1432 
1453 1452 1433 1472 1493 1492 1473 1532 1533 
1513 1512 1573 1553 1572 1552 1613 1593 1612 
1592 1653 1633 1652 1632 13 12 33 53 
32 71 93 73 72 52 91 112 113 
92 133 153 155 154 134 194 193 174 
173 192 214 213 234 233 252 273 272 
253 313 293 312 351 332 352 373 372 
392 393 413 412 452 432 451 493 472 
492 471 473 513 531 512 532 553 552 
573 572 613 592 612 593 653 632 633 
652 672 673 692 693 712 713 733 732 
772 753 773 752 793 792 812 833 813 
832 853 873 874 914 893 894 913 951 
933 952 932 953 973 993 992 972 1033 
1032 1012 1013 1073 1052 1053 1072 1093 1094 
1114 1113 1173 1194 1195 1174 1193 1234 1235 
1214 1255 1275 1254 1253 1213 1315 1274 1273 
1252 1294 1314 1335 1334 1355 1354 1395 1375 
1374 1394 1414 1415 1393 1455 1435 1434 1454 
1474 1515 1494 1475 1495 1555 1514 1535 1534 
1595 1574 1575 1554 1594 1614 1635 1615 1634 
1655 1654 15 14 34 55 35 54 75 
74 95 94 135 114 156 115 175 176 
196 215 195 276 296 235 255 275 254 
295 315 314 294 274 354 375 333 334 
374 394 395 353 415 434 435 414 455 
475 454 453 433 495 494 474 514 533 
534 515 575 555 554 574 594 615 614 
595 675 634 635 654 655 695 694 674 
715 734 735 754 755 714 794 775 795 
774 815 835 834 814 896 875 916 855 
854 915 895 955 935 934 954 975 995 
994 1015 974 1035 1055 1014 1034 1075 1054 
1095 1074 1136 1175 1115 1135 1155 1154 1377 
1215 1397 1236 1256 1437 1276 1417 1296 1316 
1477 1457 1336 1356 1517 1497 1295 1537 1557 
1396 1376 1597 1416 1577 1436 1476 1456 1637 
1617 17 1496 1657 1516 37 57 1556 1536 
97 77 1596 1576 137 1636 117 1616 1656 
16 177 157 197 36 217 56 237 76 
96 277 297 116 317 136 357 216 337 
257 236 256 417 397 457 437 336 316 
377 356 477 376 335 497 355 517 416 
537 396 557 456 617 597 436 577 476 
496 637 657 677 536 697 516 556 737 
717 535 596 757 576 777 636 817 797 
616 837 857 676 656 877 696 716 897 
756 736 917 937 776 997 957 796 816 
977 856 1017 836 1037 1077 876 936 1057 
956 1097 1117 976 996 1177 1016 1137 1217 
1056 1036 1197 1076 1096 1237 1257 1116 1157 
1277 1176 1297 1156 1337 1317 1196 1216 1357 
1319 198 218 1299 1359 238 258 1339 1399 
298 318 278 1379 338 1419 1439 1459 378 
398 1479 358 438 1519 418 1499 478 1539 
458 1559 518 1579 1599 498 1639 538 1619 
558 598 19 1659 578 638 618 59 39 
658 79 119 99 678 159 139 698 758 
199 738 179 718 219 778 798 239 259 
279 838 818 299 339 878 858 319 359 
379 918 898 958 399 419 938 439 1018 
998 978 459 479 499 1058 519 1038 1078 
1098 559 539 599 1118 579 1138 1178 1158 
639 619 1198 1218 679 1238 659 699 1278 
719 1258 739 1298 1318 759 1358 779 799 
819 1338 839 1378 859 1398 1458 899 879 
1418 1438 919 1498 1478 1518 1538 939 959 
979 999 1558 1578 1598 1039 1019 1638 1618 
1059 1079 1099 18 1658 1119 58 1159 1139 
38 78 1199 1179 98 1239 1219 138 118 
158 1279 1259 178 2398 2400 2401 2399 2404 
2405 2403 2402 2408 2407 2406 2409 2410 2413 
2411 2412 2414 2417 2415 2416 2419 2421 2418 
2420 2423 2424 2422 2425 2426 2427 2428 2429 
2430 2431 2433 2435 2434 2432 2437 2439 2438 
2436 2442 2440 2441 2443 2446 2447 2444 2445 
2451 2449 2450 2448 2453 2455 2452 2454 2457 
2456 2459 2458 2463 2461 2460 2462 2464 2466 
2467 2465 2469 2471 2468 2470 2473 2472 2474 
2475 2477 2480 2479 2481 2476 2478 2482 2483 
2484 2485 2487 2488 2486 2489 2493 2492 2490 
2491 2497 2496 2495 2494 2501 2499 2498 2500 
2504 2502 2505 2503 2509 2508 2507 2506 2511 
2510 2513 2512 2517 2515 2514 2516 2521 2520 
2518 2519 2523 2524 2525 2522 2527 2528 2529 
2526 2531 2530 2533 2532 2534 2535 2536 2537 
2538 2539 2541 2543 2542 2540 2544 2545 2546 
2547 2548 2549 2550 2551 2552 2554 2553 2555 
2558 2556 2557 2559 2560 2561 2562 2563 
FIELD FieldData 7
r 3 2798 float
-0.5125 -0.4875 0 -0.5375 -0.4625 0 -0.5375 -0.4875 0 
-0.5125 -0.4625 0 -0.487805 -0.4875 0 -0.487805 -0.4625 0 
-0.463415 -0.4875 0 -0.463415 -0.4625 0 -0.439024 -0.4875 0 
-0.414634 -0.4875 0 -0.414634 -0.4625 0 -0.439024 -0.4625 0 
-0.365854 -0.4875 0 -0.365854 -0.4625 0 -0.390244 -0.4625 0 
-0.390244 -0.4875 0 -0.341463 -0.4625 0 -0.317073 -0.4625 0 
-0.341463 -0.4875 0 -0.317073 -0.4875 0 -0.268293 -0.4625 0 
-0.292683 -0.4625 0 -0.292683 -0.4875 0 -0.268293 -0.4875 0 
-0.219512 -0.4875 0 -0.219512 -0.4625 0 -0.243902 -0.4625 0 
-0.243902 -0.4875 0 -0.170732 -0.4875 0 -0.195122 -0.4875 0 
-0.170732 -0.4625 0 -0.195122 -0.4625 0 -0.121951 -0.4875 0 
-0.146341 -0.4625 0 -0.146341 -0.4875 0 -0.121951 -0.4625 0 
-0.097561 -0.4875 0 -0.097561 -0.4625 0 -0.0731707 -0.4875 0 
-0.0731707 -0.4625 0 -0.0243903 -0.4875 0 -0.0243903 -0.4625 0 
-1.86265e-08 -0.4625 0 -0.0487805 -0.4875 0 -0.0487805 -0.4625 0 
-1.86265e-08 -0.4875 0 0.0487805 -0.4625 0 0.0243902 -0.4875 0 
0.0487805 -0.4875 0 0.0243902 -0.4625 0 0.0731707 -0.4875 0 
0.097561 -0.4625 0 0.0731707 -0.4625 0 0.097561 -0.4875 0 
0.146341 -0.4625 0 0.121951 -0.4625 0 0.146341 -0.4875 0 
0.121951 -0.4875 0 0.170732 -0.4625 0 0.195122 -0.4625 0 
0.195122 -0.4875 0 0.170732 -0.4875 0 0.219512 -0.4875 0 
0.219512 -0.4625 0 0.243902 -0.4875 0 0.243902 -0.4625 0 
0.292683 -0.4625 0 0.292683 -0.4875 0 0.268293 -0.4625 0 
0.268293 -0.4875 0 0.317073 -0.4875 0 0.341463 -0.4625 0 
0.317073 -0.4625 0 0.341463 -0.4875 0 0.390244 -0.4625 0 
0.390244 -0.4875 0 0.365854 -0.4875 0 0.365854 -0.4625 0 
0.414634 -0.4875 0 0.439024 -0.4875 0 0.414634 -0.4625 0 
0.439024 -0.4625 0 0.463415 -0.4625 0 0.487805 -0.4875 0 
0.487805 -0.4625 0 0.463415 -0.4875 0 0.5375 -0.4625 0 
0.5125 -0.4875 0 0.5125 -0.4625 0 0.5375 -0.4875 0 
-0.5375 -0.4375 0 -0.5125 -0.4125 0 -0.5375 -0.4125 0 
-0.5125 -0.4375 0 -0.489122 -0.408708 0 -0.489065 -0.43614 0 
-0.466183 -0.436772 0 -0.466509 -0.410408 0 -0.419244 -0.437186 0 
-0.443693 -0.410496 0 -0.442851 -0.436855 0 -0.420423 -0.411462 0 
-0.350187 -0.437879 0 -0.372755 -0.435621 0 -0.396695 -0.411347 0 
-0.373399 -0.408799 0 -0.351154 -0.409793 0 -0.395536 -0.437312 0 
-0.329275 -0.404176 0 -0.32948 -0.43223 0 -0.307112 -0.411911 0 
-0.307956 -0.439449 0 -0.265894 -0.437936 0 -0.28595 -0.402273 0 
-0.286631 -0.431959 0 -0.264448 -0.411057 0 -0.242562 -0.436612 0 
-0.219683 -0.436288 0 -0.21762 -0.411579 0 -0.241894 -0.410039 0 
-0.196651 -0.438864 0 -0.162977 -0.439117 0 -0.167043 -0.403076 0 
-0.196648 -0.40597 0 -0.179684 -0.424945 0 -0.139707 -0.436139 0 
-0.10185 -0.406967 0 -0.117276 -0.436742 0 -0.146935 -0.411984 0 
-0.123625 -0.409266 0 -0.0960416 -0.434797 0 -0.0793037 -0.410322 0 
-0.0559114 -0.412654 0 -0.0739669 -0.437523 0 -0.050123 -0.437394 0 
-0.00599937 -0.437289 0 -0.0118099 -0.410427 0 -0.0338675 -0.406451 0 
-0.0282792 -0.435049 0 0.0164947 -0.43612 0 0.0394745 -0.437547 0 
0.0336695 -0.411182 0 0.0106193 -0.409225 0 0.0794172 -0.406968 0 
0.0623078 -0.435279 0 0.0575834 -0.410169 0 0.0845725 -0.438918 0 
0.0996906 -0.42161 0 0.139647 -0.436499 0 0.115071 -0.439019 0 
0.111466 -0.400796 0 0.131022 -0.413633 0 0.184935 -0.436631 0 
0.153753 -0.407262 0 0.175249 -0.41111 0 0.161928 -0.436325 0 
0.233576 -0.438426 0 0.200099 -0.411846 0 0.20829 -0.437745 0 
0.224706 -0.415014 0 0.257968 -0.436589 0 0.281412 -0.437864 0 
0.279498 -0.41304 0 0.250947 -0.413377 0 0.302868 -0.414171 0 
0.332173 -0.438339 0 0.328138 -0.414998 0 0.306551 -0.438558 0 
0.356701 -0.415345 0 0.388265 -0.416343 0 0.381917 -0.437955 0 
0.357099 -0.437667 0 0.436304 -0.406174 0 0.437081 -0.43988 0 
0.408641 -0.439276 0 0.418549 -0.419598 0 0.454654 -0.425445 0 
0.463606 -0.402587 0 0.485376 -0.407641 0 0.490538 -0.431018 0 
0.471286 -0.440554 0 0.5375 -0.4375 0 0.5125 -0.4125 0 
0.5375 -0.4125 0 0.5125 -0.4375 0 -0.5375 -0.3625 0 
-0.5125 -0.3875 0 -0.5375 -0.3875 0 -0.5125 -0.3625 0 
-0.467003 -0.383631 0 -0.489302 -0.381038 0 -0.489491 -0.353459 0 
-0.465385 -0.357544 0 -0.422517 -0.385508 0 -0.44479 -0.38291 0 
-0.420646 -0.360415 0 -0.443045 -0.353972 0 -0.350853 -0.382362 0 
-0.364413 -0.359173 0 -0.398698 -0.38606 0 -0.394668 -0.362183 0 
-0.374667 -0.382739 0 -0.322343 -0.353373 0 -0.33013 -0.375455 0 
-0.308377 -0.38438 0 -0.268347 -0.382531 0 -0.262534 -0.357577 0 
-0.299379 -0.350657 0 -0.289407 -0.371498 0 -0.221422 -0.386008 0 
-0.205284 -0.371804 0 -0.245252 -0.384092 0 -0.237002 -0.360227 0 
-0.169633 -0.364713 0 -0.190517 -0.351946 0 -0.184993 -0.38497 0 
-0.153104 -0.381798 0 -0.113668 -0.357412 0 -0.130027 -0.384884 0 
-0.105908 -0.379614 0 -0.138183 -0.358805 0 -0.0588024 -0.387143 0 
-0.0803301 -0.35954 0 -0.0828618 -0.383596 0 -0.0573077 -0.360186 0 
-0.03236 -0.350835 0 -0.0368226 -0.377976 0 -0.0149632 -0.382791 0 
-0.0107376 -0.355642 0 0.0339076 -0.359395 0 0.0115009 -0.35516 0 
0.00738129 -0.382404 0 0.0303701 -0.384408 0 0.0542055 -0.35139 0 
0.0982398 -0.362487 0 0.0534089 -0.38531 0 0.0699413 -0.371405 0 
0.0890835 -0.385904 0 0.141035 -0.385313 0 0.122992 -0.353015 0 
0.145188 -0.35761 0 0.118712 -0.378503 0 0.195525 -0.364815 0 
0.173654 -0.35452 0 0.184567 -0.387631 0 0.163427 -0.378205 0 
0.24874 -0.373104 0 0.235074 -0.391632 0 0.210843 -0.38849 0 
0.220374 -0.364676 0 0.295883 -0.361089 0 0.28489 -0.381807 0 
0.265398 -0.393367 0 0.267204 -0.360042 0 0.33847 -0.39485 0 
0.330061 -0.354799 0 0.321298 -0.37453 0 0.306999 -0.391775 0 
0.380619 -0.378121 0 0.359421 -0.356603 0 0.351812 -0.376615 0 
0.370437 -0.397857 0 0.430862 -0.360723 0 0.447213 -0.383059 0 
0.421024 -0.384219 0 0.400338 -0.368433 0 0.402504 -0.398322 0 
0.489323 -0.3834 0 0.469358 -0.372965 0 0.489725 -0.355281 0 
0.452101 -0.353877 0 0.5125 -0.3625 0 0.5375 -0.3875 0 
0.5375 -0.3625 0 0.5125 -0.3875 0 -0.5125 -0.3125 0 
-0.5125 -0.3375 0 -0.5375 -0.3375 0 -0.5375 -0.3125 0 
-0.468678 -0.332709 0 -0.489383 -0.323863 0 -0.465689 -0.304594 0 
-0.404209 -0.337883 0 -0.401247 -0.312878 0 -0.426727 -0.331622 0 
-0.446789 -0.323513 0 -0.423662 -0.304032 0 -0.376915 -0.316725 0 
-0.354105 -0.323586 0 -0.378963 -0.340986 0 -0.345488 -0.347445 0 
-0.328934 -0.325302 0 -0.306193 -0.326104 0 -0.276787 -0.340381 0 
-0.262428 -0.314997 0 -0.284897 -0.315575 0 -0.202734 -0.327562 0 
-0.217956 -0.348605 0 -0.243755 -0.302108 0 -0.247599 -0.335547 0 
-0.227476 -0.323024 0 -0.193469 -0.304276 0 -0.176926 -0.330997 0 
-0.16871 -0.308542 0 -0.156285 -0.343028 0 -0.120773 -0.302056 0 
-0.145642 -0.318603 0 -0.128023 -0.33402 0 -0.107736 -0.320462 0 
-0.0730448 -0.33107 0 -0.0959462 -0.342249 0 -0.0610176 -0.304716 0 
-0.0858819 -0.309832 0 -0.0510482 -0.334677 0 -0.0386901 -0.31166 0 
-0.00479993 -0.30178 0 -0.0210462 -0.326139 0 0.0405301 -0.302226 0 