# vtk DataFile Version 4.0
vtk output
ASCII
DATASET POLYDATA
FIELD FieldData 4
domain 1 3 string
domain_min:-20|-15
domain_max:20|15
cell_size:0.05

variables 1 2 string
dt:0.000372678
T:0.271692

constants 1 10 string
xsize:2
ysize:1
csize:0.05
dx:0.0238095
h:0.025
rho0:1000
mass:0.566894
g:1|0
c:13.4164
CFL:0.2

functions 1 8 string
time:T=(T+dt)
continuity:rho_dot=((-(rho*sph_D00(v,mass,rho,Wp52220)))+(((0.1*c)*h)*sph_L00(rho,mass,rho,Wp52220)))
irho:rho=(rho+int1((rho_dot,dt))
EOS:p=(((c^2)*(rho-rho0))+10000)
euler:a=if((gid,(0*v),(((-((1/rho)*sph_G11(p,mass,rho,Wp52220)))+(0.01*sph_L00(v,mass,rho,Wp52220)))+g))
vel:v=(v+int1((a,dt))
pos:r=(r+int1((v,dt))
new_dt:dt=(CFL*min((sqrt(((h/fmax(magnitude((a)))),(h/c)))

POINTS 2798 float
-0.5375 -0.4625 0 -0.5375 -0.4875 0 -0.5125 -0.4625 0 
-0.5125 -0.4875 0 -0.487805 -0.4875 0 -0.463415 -0.4875 0 
-0.463415 -0.4625 0 -0.487805 -0.4625 0 -0.414634 -0.4625 0 
-0.439024 -0.4875 0 -0.439024 -0.4625 0 -0.414634 -0.4875 0 
-0.390244 -0.4625 0 -0.365854 -0.4625 0 -0.390244 -0.4875 0 
-0.365854 -0.4875 0 -0.341463 -0.4625 0 -0.341463 -0.4875 0 
-0.317073 -0.4625 0 -0.317073 -0.4875 0 -0.268293 -0.4625 0 
-0.292683 -0.4625 0 -0.292683 -0.4875 0 -0.268293 -0.4875 0 
-0.219512 -0.4625 0 -0.243902 -0.4875 0 -0.219512 -0.4875 0 
-0.243902 -0.4625 0 -0.195122 -0.4625 0 -0.170732 -0.4875 0 
-0.170732 -0.4625 0 -0.195122 -0.4875 0 -0.121951 -0.4625 0 
-0.146341 -0.4875 0 -0.146341 -0.4625 0 -0.121951 -0.4875 0 
-0.097561 -0.4875 0 -0.0731707 -0.4625 0 -0.097561 -0.4625 0 
-0.0731707 -0.4875 0 -1.86265e-08 -0.4875 0 -1.86265e-08 -0.4625 0 
-0.0487805 -0.4625 0 -0.0243903 -0.4875 0 -0.0243903 -0.4625 0 
-0.0487805 -0.4875 0 0.0487805 -0.4875 0 0.0487805 -0.4625 0 
0.0243902 -0.4625 0 0.0243902 -0.4875 0 0.0731707 -0.4875 0 
0.0731707 -0.4625 0 0.097561 -0.4875 0 0.097561 -0.4625 0 
0.146341 -0.4875 0 0.121951 -0.4625 0 0.146341 -0.4625 0 
0.121951 -0.4875 0 0.195122 -0.4875 0 0.195122 -0.4625 0 
0.170732 -0.4875 0 0.170732 -0.4625 0 0.219512 -0.4875 0 
0.243902 -0.4625 0 0.243902 -0.4875 0 0.219512 -0.4625 0 
0.292683 -0.4875 0 0.268293 -0.4625 0 0.292683 -0.4625 0 
0.268293 -0.4875 0 0.317073 -0.4875 0 0.317073 -0.4625 0 
0.341463 -0.4875 0 0.341463 -0.4625 0 0.390244 -0.4875 0 
0.390244 -0.4625 0 0.365854 -0.4625 0 0.365854 -0.4875 0 
0.414634 -0.4875 0 0.414634 -0.4625 0 0.439024 -0.4875 0 
0.439024 -0.4625 0 0.487805 -0.4625 0 0.487805 -0.4875 0 
0.463415 -0.4625 0 0.463415 -0.4875 0 0.5375 -0.4875 0 
0.5375 -0.4625 0 0.5125 -0.4875 0 0.5125 -0.4625 0 
-0.5375 -0.4375 0 -0.5375 -0.4125 0 -0.5125 -0.4375 0 
-0.5125 -0.4125 0 -0.488015 -0.43749 0 -0.463562 -0.437371 0 
-0.487977 -0.412391 0 -0.463583 -0.412255 0 -0.439228 -0.412304 0 
-0.414824 -0.437474 0 -0.414848 -0.412462 0 -0.439201 -0.437417 0 
-0.36588 -0.412627 0 -0.365945 -0.437531 0 -0.390396 -0.437511 0 
-0.39039 -0.412569 0 -0.316977 -0.437594 0 -0.341481 -0.437548 0 
-0.341333 -0.412682 0 -0.316725 -0.412802 0 -0.292067 -0.412817 0 
-0.267395 -0.41286 0 -0.292441 -0.437595 0 -0.267901 -0.437613 0 
-0.243339 -0.437633 0 -0.242695 -0.412917 0 -0.217968 -0.41294 0 
-0.218758 -0.43764 0 -0.193234 -0.412963 0 -0.168496 -0.412977 0 
-0.169581 -0.437655 0 -0.194172 -0.43765 0 -0.144989 -0.437661 0 
-0.143762 -0.412985 0 -0.1204 -0.437664 0 -0.119038 -0.412987 0 
-0.0958191 -0.437666 0 -0.0943311 -0.412983 0 -0.0712501 -0.437669 0 
-0.0696468 -0.412975 0 -0.0203624 -0.412946 0 -0.0449893 -0.412962 0 
-0.0221592 -0.437672 0 -0.0466959 -0.43767 0 0.0268545 -0.437676 0 
0.00235797 -0.437674 0 0.028789 -0.412906 0 0.00423086 -0.412928 0 
0.0533109 -0.412882 0 0.0513295 -0.437676 0 0.0777963 -0.412855 0 
0.0757828 -0.437675 0 0.124624 -0.437667 0 0.126657 -0.41279 0 
0.149012 -0.437658 0 0.100214 -0.437672 0 0.102245 -0.412824 0 
0.175368 -0.412714 0 0.173379 -0.437647 0 0.199667 -0.41267 0 
0.197723 -0.437633 0 0.151032 -0.412753 0 0.222045 -0.437617 0 
0.246346 -0.437601 0 0.248149 -0.412585 0 0.223927 -0.412627 0 
0.29488 -0.437569 0 0.272332 -0.412538 0 0.270625 -0.437584 0 
0.296476 -0.412494 0 0.320585 -0.412459 0 0.344655 -0.412416 0 
0.343334 -0.437543 0 0.319117 -0.437558 0 0.391697 -0.43752 0 
0.368687 -0.412372 0 0.367529 -0.437533 0 0.392665 -0.412312 0 
0.43995 -0.437526 0 0.415828 -0.437491 0 0.41659 -0.412244 0 
0.440491 -0.412295 0 0.464454 -0.412418 0 0.488388 -0.412571 0 
0.464126 -0.437538 0 0.488358 -0.437724 0 0.5375 -0.4125 0 
0.5125 -0.4125 0 0.5125 -0.4375 0 0.5375 -0.4375 0 
-0.5125 -0.3625 0 -0.5375 -0.3625 0 -0.5125 -0.3875 0 
-0.5375 -0.3875 0 -0.487994 -0.362156 0 -0.463622 -0.361923 0 
-0.463631 -0.387096 0 -0.488003 -0.387278 0 -0.414937 -0.387464 0 
-0.439297 -0.362069 0 -0.414901 -0.362488 0 -0.439311 -0.38719 0 
-0.390465 -0.387664 0 -0.390384 -0.362796 0 -0.365919 -0.387785 0 
-0.365773 -0.363005 0 -0.341314 -0.387897 0 -0.316288 -0.363516 0 
-0.31663 -0.388111 0 -0.341078 -0.363189 0 -0.29142 -0.363577 0 
-0.291879 -0.38815 0 -0.267115 -0.388217 0 -0.266551 -0.363658 0 
-0.216725 -0.363862 0 -0.241657 -0.363813 0 -0.242319 -0.38832 0 
-0.21749 -0.388357 0 -0.166877 -0.36392 0 -0.167821 -0.388409 0 
-0.191797 -0.3639 0 -0.192657 -0.388391 0 -0.117094 -0.363881 0 
-0.14197 -0.363908 0 -0.142993 -0.388411 0 -0.118185 -0.388403 0 
-0.0674514 -0.363775 0 -0.0686478 -0.388352 0 -0.092252 -0.363837 0 
-0.0934006 -0.388382 0 -0.0179963 -0.363618 0 -0.0426989 -0.363702 0 
-0.0192561 -0.38827 0 -0.0439321 -0.388315 0 0.00537658 -0.388218 0 
0.00665413 -0.363523 0 0.0312513 -0.363421 0 0.0299646 -0.388161 0 
0.055795 -0.36331 0 0.0545077 -0.388099 0 0.080285 -0.363193 0 
0.0790054 -0.388032 0 0.103458 -0.38796 0 0.127864 -0.387884 0 
0.104721 -0.36307 0 0.129104 -0.362943 0 0.17771 -0.362679 0 
0.153434 -0.362812 0 0.152225 -0.387805 0 0.176538 -0.387721 0 
0.249197 -0.387462 0 0.201932 -0.362545 0 0.226101 -0.362411 0 
0.200805 -0.387635 0 0.225025 -0.38755 0 0.274262 -0.362134 0 
0.250209 -0.362273 0 0.298266 -0.362006 0 0.273318 -0.387371 0 
0.297392 -0.387289 0 0.322213 -0.361879 0 0.346099 -0.361731 0 
0.345401 -0.387121 0 0.321422 -0.387212 0 0.393192 -0.386906 0 
0.369326 -0.387028 0 0.369925 -0.36158 0 0.393682 -0.36138 0 
0.416988 -0.386777 0 0.417369 -0.361194 0 0.440768 -0.386862 0 
0.441027 -0.361281 0 0.464687 -0.361479 0 0.488419 -0.387268 0 
0.48845 -0.361911 0 0.46456 -0.387013 0 0.5375 -0.3625 0 
0.5125 -0.3875 0 0.5375 -0.3875 0 0.5125 -0.3625 0 
-0.5375 -0.3125 0 -0.5125 -0.3375 0 -0.5125 -0.3125 0 
-0.5375 -0.3375 0 -0.487987 -0.311942 0 -0.463624 -0.311574 0 
-0.487981 -0.337044 0 -0.463596 -0.336753 0 -0.439322 -0.311863 0 
-0.414835 -0.337556 0 -0.439261 -0.336969 0 -0.414913 -0.312641 0 
-0.365633 -0.313683 0 -0.365585 -0.338309 0 -0.390347 -0.313214 0 
-0.390268 -0.337989 0 -0.315743 -0.314691 0 -0.340789 -0.338584 0 
-0.315876 -0.339042 0 -0.340764 -0.314083 0 -0.265918 -0.339188 0 
-0.290643 -0.314764 0 -0.265606 -0.31478 0 -0.290885 -0.339119 0 
-0.240576 -0.315082 0 -0.215468 -0.31516 0 -0.240938 -0.339407 0 
-0.215906 -0.339464 0 -0.165324 -0.315144 0 -0.1659 -0.339501 0 
-0.190371 -0.315147 0 -0.19089 -0.339487 0 -0.140928 -0.339468 0 
-0.140301 -0.315088 0 -0.11532 -0.314985 0 -0.115994 -0.33941 0 
-0.0662682 -0.339229 0 -0.0911073 -0.339332 0 -0.0655272 -0.314714 0 
-0.0903963 -0.314864 0 -0.0159718 -0.314347 0 -0.0167618 -0.338975 0 
-0.0414852 -0.339109 0 -0.0407166 -0.314539 0 0.00790181 -0.338828 0 
0.00870786 -0.314139 0 0.0325041 -0.33867 0 0.0333213 -0.313918 0 
0.0578695 -0.313687 0 0.0570453 -0.338502 0 0.0823531 -0.313448 0 
0.081526 -0.338327 0 0.106774 -0.313205 0 0.130308 -0.337961 0 
0.105946 -0.338146 0 0.13113 -0.312959 0 0.179645 -0.31246 0 
0.15461 -0.337775 0 0.178852 -0.337586 0 0.155421 -0.31271 0 
0.203802 -0.312208 0 0.227147 -0.337206 0 0.227892 -0.311954 0 
0.203032 -0.337397 0 0.275193 -0.33682 0 0.25192 -0.311705 0 
0.275891 -0.311469 0 0.299795 -0.311226 0 0.251199 -0.337009 0 
0.299132 -0.336647 0 0.323002 -0.336453 0 0.32361 -0.310951 0 
0.34735 -0.310673 0 0.3468 -0.336238 0 0.371024 -0.310388 0 
0.394626 -0.310027 0 0.394191 -0.335744 0 0.370532 -0.336023 0 
0.441332 -0.335572 0 0.441618 -0.309727 0 0.418158 -0.309726 0 
0.41778 -0.335502 0 0.464985 -0.309947 0 0.488537 -0.310992 0 
0.464838 -0.335791 0 0.488496 -0.336488 0 0.5125 -0.3125 0 
0.5125 -0.3375 0 0.5375 -0.3125 0 0.5375 -0.3375 0 
-0.5125 -0.2875 0 -0.5375 -0.2875 0 -0.5375 -0.2625 0 
-0.5125 -0.2625 0 -0.463695 -0.286332 0 -0.46378 -0.260992 0 
-0.488018 -0.261633 0 -0.488002 -0.286811 0 -0.439478 -0.286691 0 
-0.439691 -0.261383 0 -0.415536 -0.262576 0 -0.415156 -0.287679 0 
-0.366477 -0.264497 0 -0.391164 -0.263527 0 -0.390655 -0.288415 0 
-0.365949 -0.289083 0 -0.341464 -0.265309 0 -0.341018 -0.289652 0 
-0.31622 -0.266292 0 -0.315896 -0.290438 0 -0.265743 -0.266051 0 
-0.290695 -0.290499 0 -0.290909 -0.266328 0 -0.265596 -0.290402 0 
-0.215368 -0.29094 0 -0.240537 -0.290807 0 -0.240643 -0.266574 0 
-0.2154 -0.266805 0 -0.190128 -0.266686 0 -0.19019 -0.290877 0 
-0.165084 -0.290838 0 -0.164951 -0.266584 0 -0.139847 -0.266483 0 
-0.114768 -0.266294 0 -0.114983 -0.290608 0 -0.140017 -0.290759 0 
-0.0651223 -0.290227 0 -0.0900175 -0.290428 0 -0.0897416 -0.266038 0 
-0.0648034 -0.265769 0 -0.0399425 -0.265467 0 -0.0155235 -0.289733 0 
-0.0151551 -0.265137 0 -0.0402886 -0.289991 0 0.00955561 -0.264791 0 
0.00917189 -0.289459 0 0.0337996 -0.289171 0 0.0341929 -0.264432 0 
0.0832482 -0.263692 0 0.0587567 -0.264065 0 0.0828509 -0.28857 0 
0.0583588 -0.288874 0 0.107667 -0.263317 0 0.132017 -0.26294 0 
0.13163 -0.287951 0 0.107275 -0.288262 0 0.156301 -0.262566 0 
0.180527 -0.262196 0 0.155916 -0.287637 0 0.180134 -0.287322 0 
0.204697 -0.261831 0 0.204289 -0.28701 0 0.228383 -0.286702 0 
0.228809 -0.261468 0 0.252851 -0.261104 0 0.276807 -0.26072 0 
0.27639 -0.286098 0 0.25242 -0.286397 0 0.347776 -0.285068 0 
0.348181 -0.259472 0 0.300664 -0.260287 0 0.324444 -0.259858 0 
0.300268 -0.285772 0 0.324055 -0.285408 0 0.37186 -0.259033 0 
[...]
POINT_DATA 2798
SCALARS id float
LOOKUP_TABLE default
2601 2600 2621 2620 2640 2642 2643 2641 2647 
2644 2645 2646 2649 2651 2648 2650 2653 2652 
2655 2654 2659 2657 2656 2658 2663 2660 2662 
2661 2665 2666 2667 2664 2671 2668 2669 2670 
2672 2675 2673 2674 2680 2681 2677 2678 2679 
2676 2684 2685 2683 2682 2686 2687 2688 2689 
2692 2691 2693 2690 2696 2697 2694 2695 2698 
2701 2700 2699 2704 2703 2705 2702 2706 2707 
2708 2709 2712 2713 2711 2710 2714 2715 2716 
2717 2721 2720 2719 2718 2742 2743 2722 2723 
2602 2603 2622 2623 1660 1678 1661 1679 1697 
1714 1715 1696 1751 1750 1732 1733 1786 1768 
1769 1787 1805 1823 1804 1822 1840 1841 1859 
1858 1877 1895 1894 1876 1912 1913 1930 1931 
1948 1949 1966 1967 2003 1985 2002 1984 2038 
2020 2039 2021 2057 2056 2075 2074 2110 2111 
2128 2092 2093 2147 2146 2165 2164 2129 2182 
2200 2201 2183 2236 2219 2218 2237 2255 2273 
2272 2254 2308 2291 2290 2309 2344 2326 2327 
2345 2363 2381 2362 2380 2745 2725 2724 2744 
2625 2605 2624 2604 1663 1681 1680 1662 1716 
1699 1717 1698 1734 1735 1752 1753 1770 1789 
1788 1771 1807 1806 1824 1825 1861 1843 1842 
1860 1897 1896 1879 1878 1933 1915 1914 1932 
1969 1968 1951 1950 2005 1987 2004 1986 2022 
2023 2041 2040 2059 2058 2077 2076 2094 2112 
2095 2113 2149 2131 2130 2148 2202 2167 2185 
2166 2184 2221 2203 2239 2220 2238 2257 2275 
2274 2256 2310 2292 2293 2311 2328 2329 2346 
2347 2365 2382 2383 2364 2747 2726 2746 2727 
2607 2626 2627 2606 1665 1683 1664 1682 1701 
1718 1700 1719 1755 1754 1737 1736 1791 1772 
1790 1773 1826 1809 1827 1808 1845 1863 1844 
1862 1899 1898 1881 1880 1916 1917 1935 1934 
1970 1952 1971 1953 2007 2006 1988 1989 2024 
2025 2042 2043 2061 2060 2079 2078 2097 2114 
2096 2115 2151 2132 2150 2133 2169 2186 2187 
2168 2222 2205 2223 2241 2204 2240 2258 2259 
2277 2276 2295 2313 2312 2294 2348 2349 2331 
2330 2367 2385 2366 2384 2729 2728 2749 2748 
2628 2608 2609 2629 1684 1685 1667 1666 1702 
1703 1721 1720 1757 1739 1738 1756 1775 1774 
1793 1792 1829 1810 1811 1828 1864 1846 1847 
1865 1883 1882 1900 1901 1919 1937 1936 1918 
1972 1954 1955 1973 1991 2008 2009 1990 2027 
2026 2044 2045 2081 2063 2080 2062 2099 2117 
2116 2098 2135 2153 2134 2152 2171 2170 2188 
2189 2207 2225 2224 2206 2278 2279 2243 2261 
2242 2260 2297 2296 2315 2314 2333 2350 2351 
2332 2369 2386 2387 2368 2751 2731 2730 2750 
2610 2611 2630 2631 1668 1686 1669 1687 1723 
1722 1704 1705 1741 1759 1758 1740 1794 1776 
1795 1777 1813 1812 1830 1831 1866 1867 1849 
1848 1902 1884 1885 1903 1938 1939 1921 1920 
1975 1956 1957 1974 1992 2010 2011 1993 2046 
2047 2028 2029 2083 2064 2065 2082 2119 2118 
2100 2101 2155 2136 2154 2137 2190 2191 2173 
2172 2226 2209 2227 2208 2280 2245 2244 2263 
2281 2262 2316 2317 2299 2298 2352 2335 2334 
2353 2371 2389 2388 2370 2733 2753 2732 2752 
2612 2613 2632 2633 1671 1670 1688 1689 1724 
1707 1725 1706 1761 1743 1742 1760 1796 1778 
1779 1797 1815 1832 1833 1814 1868 1851 1850 
1869 1905 1886 1887 1904 1922 1941 1923 1940 
1959 1977 1958 1976 1994 2013 1995 2012 2031 
2049 2030 2048 2067 2066 2085 2084 2120 2121 
2103 2102 2157 2139 2156 2138 2193 2175 2192 
2174 2210 2229 2228 2211 2265 2247 2246 2264 
2318 2300 2283 2301 2319 2282 2355 2354 2337 
2336 2372 2391 2390 2754 2735 2755 2734 2634 
2614 2615 2635 1691 1672 1673 1690 1709 1726 
1708 1727 1763 1762 1745 1744 1799 1798 1780 
1781 1816 1817 1835 1834 1871 1853 1852 1872 
1854 1870 1888 1907 1889 1906 1890 1942 1924 
1943 1925 1979 1961 1960 1978 2015 2014 1997 
1996 2032 2033 2051 2050 2087 2069 2068 2086 
2105 2122 2104 2123 2159 2140 2158 2141 2176 
2195 2194 2177 2213 2231 2230 2212 2266 2267 
2248 2249 2302 2285 2284 2303 2356 2338 2321 
2320 2374 2373 2392 2393 2757 2737 2736 2756 
2617 2637 2636 2616 1675 1693 1674 1692 1711 
1728 1729 1710 1747 1765 1746 1764 1801 1783 
1800 1782 1802 1819 1836 1820 1818 1837 1855 
1856 1873 1874 1892 1891 1908 1926 1910 1909 
1927 1944 1945 1963 1962 1980 1981 2017 1999 
2016 1998 2052 2035 2053 2034 2089 2088 2071 
2070 2125 2124 2107 2106 2143 2160 2142 2161 
2179 2196 2178 2197 2215 2232 2214 2233 2269 
2268 2250 2251 2286 2305 2304 2287 2358 2339 
2340 2322 2357 2375 2394 2376 2739 2738 2759 
2758 2566 2565 2567 2564 2569 2571 2568 2570 
2575 2574 2573 2572 2576 2577 2579 2578 2583 
2581 2580 2582 2586 2585 2584 2587 2591 2588 
2590 2589 2592 2595 2594 2593 2599 2597 2596 
2598 2639 2619 2618 2638 1694 1676 1677 1713 
1712 1695 140 1766 1730 1748 1731 160 180 
1749 1784 1767 1785 1803 220 200 240 1838 
260 280 1821 1839 300 1857 320 340 1875 
1928 360 1911 1964 1946 380 1893 1929 2000 
1982 1947 2036 1983 2018 1965 2054 2090 2019 
2001 2072 2037 2055 2108 2126 2091 2073 2144 
2162 2180 2127 2198 2109 2145 2216 2163 2234 
2252 2199 2270 2181 2288 2235 2306 2217 2342 
2359 2324 2323 2341 2377 2395 2378 2396 2360 
2760 2761 2740 2741 2764 2763 2762 2765 2767 
2768 2766 2769 2770 2771 2772 2773 2774 2775 
2777 2776 2779 2778 2780 2781 2784 2782 2785 
2783 2787 2786 2789 2788 2790 2793 2792 2791 
2795 2794 2797 2796 1221 1280 1201 1300 1320 
1241 1340 1261 1380 1281 1360 1301 1420 1400 
1341 1321 1440 1381 1460 1361 1421 1480 1401 
1500 1441 1520 1540 1461 1501 1481 1580 1560 
1620 1600 1521 1541 1581 1640 0 1561 20 
40 1601 1621 60 80 1641 100 1 21 
41 120 101 81 61 122 102 141 142 
121 182 162 181 161 201 202 221 222 
241 242 281 261 262 301 282 302 321 
400 361 420 322 341 440 381 460 401 
421 441 500 480 520 461 481 540 560 
521 501 580 541 600 620 561 640 660 
680 601 581 641 720 700 621 740 661 
681 760 2253 2271 800 780 820 2289 840 
2307 860 2325 2361 2343 900 880 940 2379 
920 980 960 2397 1020 1080 1060 1000 1001 
1041 1100 1040 1021 1061 1120 1140 1081 1101 
1160 1180 1141 1121 1200 1220 1161 1240 1260 
1181 1182 1183 1202 1203 1222 1223 1242 1243 
1263 1282 1283 1262 1323 1302 1322 1303 1363 
1343 1362 1342 1383 1422 1402 1403 1382 1442 
1463 1443 1462 1423 1483 1503 1502 1482 1522 
1543 1542 1523 1563 1583 1582 1562 1622 1602 
1603 1623 2 3 1642 1643 42 43 23 
22 63 83 82 62 103 123 164 163 
144 183 143 203 223 204 184 224 263 
243 244 264 283 304 303 284 323 343 
342 363 402 383 382 362 422 442 423 
403 443 482 483 462 463 523 503 502 
522 542 543 562 563 602 583 603 582 
623 642 643 622 683 662 682 663 701 
722 703 723 721 702 762 761 741 742 
781 782 801 802 821 842 822 841 862 
861 881 882 902 921 903 901 922 942 
961 941 981 983 962 1002 982 1003 1042 
1043 1022 1063 1083 1062 1082 1102 1122 1103 
1123 1163 1142 1143 1162 1204 1185 1184 1205 
1225 1245 1244 1224 1285 1284 1264 1265 1324 
1304 1305 1325 1345 1365 1364 1344 1404 1385 
1384 1405 1444 1424 1445 1425 1465 1484 1485 
1464 1525 1524 1504 1505 1544 1584 1564 1565 
1545 1585 1605 1604 1625 1624 1645 5 4 
1644 44 45 24 25 85 84 64 65 
125 104 105 124 165 145 205 185 206 
225 226 265 246 266 245 305 286 285 
325 324 344 345 384 385 364 365 404 
405 425 424 444 445 464 465 485 505 
504 484 525 564 545 524 544 565 584 
604 585 605 644 645 625 624 665 685 
684 664 724 705 725 704 743 744 745 
763 764 765 784 804 785 783 803 843 
825 824 823 845 864 863 844 904 905 
885 883 884 924 943 923 945 944 925 
985 965 964 963 984 1023 1025 1024 1004 
1005 1065 1064 1044 1045 1084 1085 1105 1124 
1104 1125 1164 1144 1145 1165 1187 1186 1206 
1207 1226 1227 1246 1247 1287 1286 1266 1267 
1326 1327 1306 1307 1346 1347 1366 1367 1387 
1407 1386 1406 1427 1426 1447 1446 1486 1487 
1466 1467 1507 1526 1527 1506 1567 1566 1546 
1547 1626 1606 1627 1607 1587 1586 1647 7 
6 1646 27 26 47 46 67 66 86 
87 106 127 107 126 166 146 147 167 
187 186 207 267 268 248 247 227 307 
306 288 287 326 327 347 346 386 387 
367 366 407 427 426 406 447 446 466 
467 487 486 506 507 526 547 546 527 
567 566 586 587 626 606 607 627 646 
647 667 666 706 707 687 686 727 746 
747 726 766 786 787 767 826 805 827 
806 807 847 867 866 846 865 907 906 
886 887 926 947 946 927 966 986 987 
967 1027 1007 1026 1006 1067 1047 1066 1046 
1086 1087 1107 1126 1106 1127 1167 1147 1146 
1166 1189 1188 1208 1209 1249 1228 1229 1248 
1269 1288 1268 1289 1309 1308 1328 1329 1349 
1368 1369 1348 1389 1409 1408 1388 1449 1448 
1428 1429 1468 1489 1469 1488 1528 1509 1508 
1529 1569 1568 1548 1549 1588 1609 1608 1629 
1628 1589 9 1649 8 1648 28 48 29 
49 89 68 88 69 108 129 128 109 
148 149 169 168 209 188 208 189 249 
229 228 269 309 308 289 329 348 349 
328 388 369 368 389 409 408 429 428 
468 469 448 449 488 509 489 508 528 
549 548 529 588 568 589 569 608 628 
629 609 649 668 669 648 708 688 689 
709 749 748 729 728 768 789 769 788 
828 808 809 829 869 868 849 848 909 
908 889 888 949 928 948 929 969 988 
989 968 1009 1008 1029 1028 1048 1068 1049 
1069 1088 1089 1108 1129 1128 1109 1149 1168 
1148 1169 1191 1210 1211 1190 1231 1250 1230 
1251 1271 1290 1291 1270 1331 1310 1330 1311 
1370 1350 1351 1371 1391 1411 1410 1390 1451 
1450 1431 1430 1470 1471 1491 1490 1511 1510 
1530 1531 1570 1571 1551 1591 1550 1590 1631 
1630 1611 1610 10 1651 1650 11 51 31 
50 30 90 71 91 70 110 131 130 
111 151 150 171 170 190 211 210 191 
251 230 250 231 270 271 310 291 311 
290 351 330 331 350 371 391 370 390 
430 411 431 410 470 450 451 471 490 
511 510 491 530 531 550 551 571 590 
591 570 611 630 631 610 651 650 671 
670 690 691 711 710 750 751 730 731 
791 790 771 770 830 810 831 811 871 
851 870 850 890 891 911 910 931 950 
951 930 970 971 991 990 1011 1010 1031 
1030 1050 1071 1091 1051 1070 1090 1111 1110 
1131 1130 1150 1151 1170 1171 1192 1212 1193 
1213 1233 1253 1232 1252 1293 1292 1272 1273 
1332 1312 1313 1333 1353 1372 1373 1352 1413 
1392 1412 1393 1432 1433 1452 1453 1473 1493 
1472 1492 1532 1513 1533 1512 1553 1552 1593 
1592 1573 1572 1612 1633 1613 1632 1653 12 
13 1652 33 52 53 32 93 92 72 
73 133 132 112 113 173 172 153 152 
213 193 212 192 252 232 233 253 312 
292 293 313 272 273 352 332 353 333 
392 372 393 373 432 413 412 433 473 
453 452 472 492 493 513 512 532 553 
552 533 573 572 592 593 612 632 633 
613 653 673 652 672 713 693 712 692 
733 732 753 752 772 773 792 793 813 
833 812 832 853 852 873 872 893 892 
912 913 952 953 933 932 993 973 992 
972 1013 1012 1053 1032 1033 1073 1093 1092 
1052 1072 1112 1113 1132 1133 1172 1152 1173 
1153 1194 1195 1214 1215 1235 1234 1255 1254 
1274 1295 1275 1294 1335 1315 1314 1334 1355 
1374 1375 1354 1415 1414 1395 1394 1454 1435 
1455 1434 1475 1515 1495 1474 1494 1534 1514 
1555 1535 1554 1594 1575 1595 1574 1615 1614 
1635 1634 1654 1655 14 15 54 35 34 
55 75 94 95 74 115 114 134 135 
155 154 175 174 195 215 214 194 235 
234 274 275 255 254 314 295 294 315 
334 355 354 335 375 394 395 374 415 
435 414 434 475 455 474 454 495 514 
515 494 535 555 554 534 594 575 574 
595 615 614 634 635 674 675 654 655 
714 695 715 694 735 754 734 755 815 
794 795 774 775 814 835 855 834 854 
875 874 895 914 894 915 935 975 954 
955 934 974 1014 1015 995 994 1034 1054 
1035 1055 1074 1095 1094 1075 1114 1134 1135 
1115 1175 1174 1154 1155 1217 1216 1197 1196 
1257 1236 1256 1237 1277 1276 1297 1296 1317 
1316 1336 1337 1356 1357 1397 1376 1377 1417 
1416 1396 1437 1436 1476 1456 1477 1457 1516 
1517 1496 1497 1556 1536 1557 1537 1577 1596 
1576 1597 1616 1636 1617 1637 1657 16 1656 
17 37 36 57 56 76 77 97 96 
116 117 136 137 156 197 157 176 177 
236 237 217 216 196 256 276 257 277 
317 316 297 296 337 357 336 356 397 
396 377 376 417 416 436 437 457 477 
476 456 497 517 516 496 536 537 557 
577 556 617 597 576 596 636 637 657 
616 656 696 677 697 676 717 736 737 
716 777 756 757 776 796 797 816 817 
837 857 836 856 897 876 896 877 917 
916 937 936 956 957 977 976 1017 997 
1016 996 1057 1036 1056 1037 1077 1097 1096 
1076 1137 1117 1116 1136 1157 1177 1176 1156 
1319 1299 1218 1198 1339 1359 1238 1258 1278 
1318 1399 1379 1298 1439 1419 1358 1338 1459 
1378 1398 1479 1499 1418 1438 1519 1539 1458 
1478 1559 1599 1579 1498 1518 1558 1538 1619 
1639 1578 1659 39 19 1598 79 1618 1638 
59 119 1658 99 18 58 38 139 159 
179 118 98 199 78 138 219 239 158 
178 259 198 279 299 218 319 238 278 
258 359 339 399 419 318 298 379 459 
439 358 338 499 398 479 378 519 418 
539 438 458 559 478 498 579 619 538 
599 518 578 659 558 639 598 679 618 
699 719 638 658 739 698 759 779 678 
718 799 819 738 778 859 839 758 899 
798 818 879 838 858 919 939 898 878 
959 979 999 1019 918 938 978 1059 958 
1039 998 1079 1099 1018 1139 1038 1058 1119 
1179 1098 1078 1159 1199 1219 1138 1239 1118 
1279 1158 1178 1259 2400 2401 2399 2398 2402 
2405 2403 2404 2407 2409 2406 2408 2410 2412 
2411 2413 2417 2416 2414 2415 2421 2419 2418 
2420 2426 2424 2425 2423 2427 2422 2429 2430 
2431 2428 2435 2433 2434 2432 2439 2436 2438 
2437 2441 2442 2440 2443 2446 2447 2444 2445 
2448 2451 2450 2449 2452 2454 2455 2453 2458 
2457 2459 2456 2463 2461 2460 2462 2464 2465 
2466 2467 2468 2471 2470 2469 2474 2475 2472 
2473 2479 2481 2476 2480 2478 2477 2482 2483 
2484 2485 2487 2488 2489 2486 2490 2491 2492 
2493 2497 2496 2495 2494 2499 2500 2498 2501 
2505 2502 2503 2504 2509 2508 2507 2506 2511 
2510 2513 2512 2514 2515 2516 2517 2518 2519 
2521 2520 2523 2524 2525 2522 2526 2529 2528 
2527 2530 2531 2532 2533 2534 2535 2536 2537 
2538 2539 2542 2541 2543 2540 2544 2545 2546 
2547 2548 2549 2550 2551 2555 2552 2553 2554 
2558 2556 2557 2559 2560 2561 2562 2563 
FIELD FieldData 7
r 3 2798 float
-0.5375 -0.4625 0 -0.5375 -0.4875 0 -0.5125 -0.4625 0 
-0.5125 -0.4875 0 -0.487805 -0.4875 0 -0.463415 -0.4875 0 
-0.463415 -0.4625 0 -0.487805 -0.4625 0 -0.414634 -0.4625 0 
-0.439024 -0.4875 0 -0.439024 -0.4625 0 -0.414634 -0.4875 0 
-0.390244 -0.4625 0 -0.365854 -0.4625 0 -0.390244 -0.4875 0 
-0.365854 -0.4875 0 -0.341463 -0.4625 0 -0.341463 -0.4875 0 
-0.317073 -0.4625 0 -0.317073 -0.4875 0 -0.268293 -0.4625 0 
-0.292683 -0.4625 0 -0.292683 -0.4875 0 -0.268293 -0.4875 0 
-0.219512 -0.4625 0 -0.243902 -0.4875 0 -0.219512 -0.4875 0 
-0.243902 -0.4625 0 -0.195122 -0.4625 0 -0.170732 -0.4875 0 
-0.170732 -0.4625 0 -0.195122 -0.4875 0 -0.121951 -0.4625 0 
-0.146341 -0.4875 0 -0.146341 -0.4625 0 -0.121951 -0.4875 0 
-0.097561 -0.4875 0 -0.0731707 -0.4625 0 -0.097561 -0.4625 0 
-0.0731707 -0.4875 0 -1.86265e-08 -0.4875 0 -1.86265e-08 -0.4625 0 
-0.0487805 -0.4625 0 -0.0243903 -0.4875 0 -0.0243903 -0.4625 0 
-0.0487805 -0.4875 0 0.0487805 -0.4875 0 0.0487805 -0.4625 0 
0.0243902 -0.4625 0 0.0243902 -0.4875 0 0.0731707 -0.4875 0 
0.0731707 -0.4625 0 0.097561 -0.4875 0 0.097561 -0.4625 0 
0.146341 -0.4875 0 0.121951 -0.4625 0 0.146341 -0.4625 0 
0.121951 -0.4875 0 0.195122 -0.4875 0 0.195122 -0.4625 0 
0.170732 -0.4875 0 0.170732 -0.4625 0 0.219512 -0.4875 0 
0.243902 -0.4625 0 0.243902 -0.4875 0 0.219512 -0.4625 0 
0.292683 -0.4875 0 0.268293 -0.4625 0 0.292683 -0.4625 0 
0.268293 -0.4875 0 0.317073 -0.4875 0 0.317073 -0.4625 0 
0.341463 -0.4875 0 0.341463 -0.4625 0 0.390244 -0.4875 0 
0.390244 -0.4625 0 0.365854 -0.4625 0 0.365854 -0.4875 0 
0.414634 -0.4875 0 0.414634 -0.4625 0 0.439024 -0.4875 0 
0.439024 -0.4625 0 0.487805 -0.4625 0 0.487805 -0.4875 0 
0.463415 -0.4625 0 0.463415 -0.4875 0 0.5375 -0.4875 0 
0.5375 -0.4625 0 0.5125 -0.4875 0 0.5125 -0.4625 0 
-0.5375 -0.4375 0 -0.5375 -0.4125 0 -0.5125 -0.4375 0 
-0.5125 -0.4125 0 -0.488015 -0.43749 0 -0.463562 -0.437371 0 
-0.487977 -0.412391 0 -0.463583 -0.412255 0 -0.439228 -0.412304 0 
-0.414824 -0.437474 0 -0.414848 -0.412462 0 -0.439201 -0.437417 0 
-0.36588 -0.412627 0 -0.365945 -0.437531 0 -0.390396 -0.437511 0 
-0.39039 -0.412569 0 -0.316977 -0.437594 0 -0.341481 -0.437548 0 
-0.341333 -0.412682 0 -0.316725 -0.412802 0 -0.292067 -0.412817 0 
-0.267395 -0.41286 0 -0.292441 -0.437595 0 -0.267901 -0.437613 0 
-0.243339 -0.437633 0 -0.242695 -0.412917 0 -0.217968 -0.41294 0 
-0.218758 -0.43764 0 -0.193234 -0.412963 0 -0.168496 -0.412977 0 
-0.169581 -0.437655 0 -0.194172 -0.43765 0 -0.144989 -0.437661 0 
-0.143762 -0.412985 0 -0.1204 -0.437664 0 -0.119038 -0.412987 0 
-0.0958191 -0.437666 0 -0.0943311 -0.412983 0 -0.0712501 -0.437669 0 
-0.0696468 -0.412975 0 -0.0203624 -0.412946 0 -0.0449893 -0.412962 0 
-0.0221592 -0.437672 0 -0.0466959 -0.43767 0 0.0268545 -0.437676 0 
0.00235797 -0.437674 0 0.028789 -0.412906 0 0.00423086 -0.412928 0 
0.0533109 -0.412882 0 0.0513295 -0.437676 0 0.0777963 -0.412855 0 
0.0757828 -0.437675 0 0.124624 -0.437667 0 0.126657 -0.41279 0 
0.149012 -0.437658 0 0.100214 -0.437672 0 0.102245 -0.412824 0 
0.175368 -0.412714 0 0.173379 -0.437647 0 0.199667 -0.41267 0 
0.197723 -0.437633 0 0.151032 -0.412753 0 0.222045 -0.437617 0 
0.246346 -0.437601 0 0.248149 -0.412585 0 0.223927 -0.412627 0 
0.29488 -0.437569 0 0.272332 -0.412538 0 0.270625 -0.437584 0 
0.296476 -0.412494 0 0.320585 -0.412459 0 0.344655 -0.412416 0 
0.343334 -0.437543 0 0.319117 -0.437558 0 0.391697 -0.43752 0 
0.368687 -0.412372 0 0.367529 -0.437533 0 0.392665 -0.412312 0 
0.43995 -0.437526 0 0.415828 -0.437491 0 0.41659 -0.412244 0 
0.440491 -0.412295 0 0.464454 -0.412418 0 0.488388 -0.412571 0 
0.464126 -0.437538 0 0.488358 -0.437724 0 0.5375 -0.4125 0 
0.5125 -0.4125 0 0.5125 -0.4375 0 0.5375 -0.4375 0 
-0.5125 -0.3625 0 -0.5375 -0.3625 0 -0.5125 -0.3875 0 
-0.5375 -0.3875 0 -0.487994 -0.362156 0 -0.463622 -0.361923 0 
-0.463631 -0.387096 0 -0.488003 -0.387278 0 -0.414937 -0.387464 0 
-0.439297 -0.362069 0 -0.414901 -0.362488 0 -0.439311 -0.38719 0 
-0.390465 -0.387664 0 -0.390384 -0.362796 0 -0.365919 -0.387785 0 
-0.365773 -0.363005 0 -0.341314 -0.387897 0 -0.316288 -0.363516 0 
-0.31663 -0.388111 0 -0.341078 -0.363189 0 -0.29142 -0.363577 0 
-0.291879 -0.38815 0 -0.267115 -0.388217 0 -0.266551 -0.363658 0 
-0.216725 -0.363862 0 -0.241657 -0.363813 0 -0.242319 -0.38832 0 
-0.21749 -0.388357 0 -0.166877 -0.36392 0 -0.167821 -0.388409 0 
-0.191797 -0.3639 0 -0.192657 -0.388391 0 -0.117094 -0.363881 0 
-0.14197 -0.363908 0 -0.142993 -0.388411 0 -0.118185 -0.388403 0 
-0.0674514 -0.363775 0 -0.0686478 -0.388352 0 -0.092252 -0.363837 0 
-0.0934006 -0.388382 0 -0.0179963 -0.363618 0 -0.0426989 -0.363702 0 
-0.0192561 -0.38827 0 -0.0439321 -0.388315 0 0.00537658 -0.388218 0 
0.00665413 -0.363523 0 0.0312513 -0.363421 0 0.0299646 -0.388161 0 
0.055795 -0.36331 0 0.0545077 -0.388099 0 0.080285 -0.363193 0 
0.0790054 -0.388032 0 0.103458 -0.38796 0 0.127864 -0.387884 0 
0.104721 -0.36307 0 0.129104 -0.362943 0 0.17771 -0.362679 0 
0.153434 -0.362812 0 0.152225 -0.387805 0 0.176538 -0.387721 0 
0.249197 -0.387462 0 0.201932 -0.362545 0 0.226101 -0.362411 0 
0.200805 -0.387635 0 0.225025 -0.38755 0 0.274262 -0.362134 0 
0.250209 -0.362273 0 0.298266 -0.362006 0 0.273318 -0.387371 0 
0.297392 -0.387289 0 0.322213 -0.361879 0 0.346099 -0.361731 0 
0.345401 -0.387121 0 0.321422 -0.387212 0 0.393192 -0.386906 0 
0.369326 -0.387028 0 0.369925 -0.36158 0 0.393682 -0.36138 0 
0.416988 -0.386777 0 0.417369 -0.361194 0 0.440768 -0.386862 0 
0.441027 -0.361281 0 0.464687 -0.361479 0 0.488419 -0.387268 0 
0.48845 -0.361911 0 0.46456 -0.387013 0 0.5375 -0.3625 0 
0.5125 -0.3875 0 0.5375 -0.3875 0 0.5125 -0.3625 0 
-0.5375 -0.3125 0 -0.5125 -0.3375 0 -0.5125 -0.3125 0 
-0.5375 -0.3375 0 -0.487987 -0.311942 0 -0.463624 -0.311574 0 
-0.487981 -0.337044 0 -0.463596 -0.336753 0 -0.439322 -0.311863 0 
-0.414835 -0.337556 0 -0.439261 -0.336969 0 -0.414913 -0.312641 0 
-0.365633 -0.313683 0 -0.365585 -0.338309 0 -0.390347 -0.313214 0 
-0.390268 -0.337989 0 -0.315743 -0.314691 0 -0.340789 -0.338584 0 
-0.315876 -0.339042 0 -0.340764 -0.314083 0 -0.265918 -0.339188 0 
-0.290643 -0.314764 0 -0.265606 -0.31478 0 -0.290885 -0.339119 0 
-0.240576 -0.315082 0 -0.215468 -0.31516 0 -0.240938 -0.339407 0 
-0.215906 -0.339464 0 -0.165324 -0.315144 0 -0.1659 -0.339501 0 
-0.190371 -0.315147 0 -0.19089 -0.339487 0 -0.140928 -0.339468 0 
-0.140301 -0.315088 0 -0.11532 -0.314985 0 -0.115994 -0.33941 0 
-0.0662682 -0.339229 0 -0.0911073 -0.339332 0 -0.0655272 -0.314714 0 
-0.0903963 -0.314864 0 -0.0159718 -0.314347 0 -0.0167618 -0.338975 0 
-0.0414852 -0.339109 0 -0.0407166 -0.314539 0 0.00790181 -0.338828 0 
0.00870786 -0.314139 0 0.0325041 -0.33867 0 0.0333213 -0.313918 0 