# vtk DataFile Version 4.0
vtk output
ASCII
DATASET POLYDATA
FIELD FieldData 4
domain 1 3 string
domain_min:-20|-15
domain_max:20|15
cell_size:0.05

variables 1 2 string
dt:0.000372678
T:2.02241

constants 1 10 string
xsize:2
ysize:1
csize:0.05
dx:0.0238095
h:0.025
rho0:1000
mass:0.566894
g:1|0
c:13.4164
CFL:0.2

functions 1 8 string
time:T=(T+dt)
continuity:rho_dot=((-(rho*sph_D00(v,mass,rho,Wp52220)))+(((0.1*c)*h)*sph_L00(rho,mass,rho,Wp52220)))
irho:rho=(rho+int1((rho_dot,dt))
EOS:p=(((c^2)*(rho-rho0))+10000)
euler:a=if((gid,(0*v),(((-((1/rho)*sph_G11(p,mass,rho,Wp52220)))+(0.01*sph_L00(v,mass,rho,Wp52220)))+g))
vel:v=(v+int1((a,dt))
pos:r=(r+int1((v,dt))
new_dt:dt=(CFL*min((sqrt(((h/fmax(magnitude((a)))),(h/c)))

POINTS 2798 float
-0.5375 -0.4625 0 -0.5125 -0.4875 0 -0.5125 -0.4625 0 
-0.5375 -0.4875 0 -0.487805 -0.4875 0 -0.463415 -0.4625 0 
-0.487805 -0.4625 0 -0.463415 -0.4875 0 -0.414634 -0.4625 0 
-0.439024 -0.4625 0 -0.414634 -0.4875 0 -0.439024 -0.4875 0 
-0.390244 -0.4875 0 -0.390244 -0.4625 0 -0.365854 -0.4875 0 
-0.365854 -0.4625 0 -0.341463 -0.4875 0 -0.341463 -0.4625 0 
-0.317073 -0.4875 0 -0.317073 -0.4625 0 -0.268293 -0.4625 0 
-0.268293 -0.4875 0 -0.292683 -0.4625 0 -0.292683 -0.4875 0 
-0.219512 -0.4875 0 -0.243902 -0.4625 0 -0.243902 -0.4875 0 
-0.219512 -0.4625 0 -0.170732 -0.4875 0 -0.170732 -0.4625 0 
-0.195122 -0.4875 0 -0.195122 -0.4625 0 -0.121951 -0.4625 0 
-0.121951 -0.4875 0 -0.146341 -0.4875 0 -0.146341 -0.4625 0 
-0.0731707 -0.4875 0 -0.097561 -0.4625 0 -0.0731707 -0.4625 0 
-0.097561 -0.4875 0 -0.0487805 -0.4875 0 -1.86265e-08 -0.4875 0 
-1.86265e-08 -0.4625 0 -0.0243903 -0.4875 0 -0.0243903 -0.4625 0 
-0.0487805 -0.4625 0 0.0243902 -0.4625 0 0.0487805 -0.4875 0 
0.0487805 -0.4625 0 0.0243902 -0.4875 0 0.097561 -0.4625 0 
0.0731707 -0.4875 0 0.097561 -0.4875 0 0.0731707 -0.4625 0 
0.121951 -0.4625 0 0.146341 -0.4875 0 0.121951 -0.4875 0 
0.146341 -0.4625 0 0.170732 -0.4625 0 0.195122 -0.4625 0 
0.170732 -0.4875 0 0.195122 -0.4875 0 0.219512 -0.4625 0 
0.219512 -0.4875 0 0.243902 -0.4625 0 0.243902 -0.4875 0 
0.292683 -0.4875 0 0.268293 -0.4625 0 0.268293 -0.4875 0 
0.292683 -0.4625 0 0.317073 -0.4625 0 0.341463 -0.4875 0 
0.317073 -0.4875 0 0.341463 -0.4625 0 0.390244 -0.4625 0 
0.390244 -0.4875 0 0.365854 -0.4875 0 0.365854 -0.4625 0 
0.439024 -0.4625 0 0.414634 -0.4625 0 0.439024 -0.4875 0 
0.414634 -0.4875 0 0.487805 -0.4625 0 0.487805 -0.4875 0 
0.463415 -0.4875 0 0.463415 -0.4625 0 0.5375 -0.4625 0 
0.5125 -0.4625 0 0.5125 -0.4875 0 0.5375 -0.4875 0 
-0.5375 -0.4375 0 -0.5375 -0.4125 0 -0.5125 -0.4125 0 
-0.5125 -0.4375 0 -0.464903 -0.412772 0 -0.488214 -0.436969 0 
-0.48864 -0.410965 0 -0.463796 -0.437779 0 -0.440686 -0.435493 0 
-0.417526 -0.437894 0 -0.442308 -0.407336 0 -0.419663 -0.411996 0 
-0.374532 -0.409363 0 -0.370548 -0.43629 0 -0.397171 -0.410849 0 
-0.393403 -0.437189 0 -0.351543 -0.409265 0 -0.304657 -0.412446 0 
-0.348333 -0.436624 0 -0.329117 -0.410421 0 -0.301906 -0.437927 0 
-0.325489 -0.43664 0 -0.258598 -0.437165 0 -0.280062 -0.433885 0 
-0.261461 -0.41001 0 -0.283453 -0.404553 0 -0.213005 -0.436438 0 
-0.235804 -0.436699 0 -0.215126 -0.409889 0 -0.238266 -0.410566 0 
-0.191803 -0.410752 0 -0.190124 -0.436957 0 -0.168435 -0.411004 0 
-0.167008 -0.436828 0 -0.143366 -0.437771 0 -0.100507 -0.438132 0 
-0.145008 -0.411711 0 -0.124966 -0.401972 0 -0.122145 -0.433125 0 
-0.104325 -0.41105 0 -0.0773054 -0.435924 0 -0.0583766 -0.409652 0 
-0.0547519 -0.437431 0 -0.0816222 -0.410301 0 -0.0358669 -0.413711 0 
-0.00401099 -0.413148 0 -0.00750002 -0.436863 0 -0.0304017 -0.437064 0 
0.0196792 -0.411822 0 0.0433364 -0.410539 0 0.0169533 -0.43788 0 
0.040071 -0.436454 0 0.0677951 -0.412595 0 0.0872709 -0.437894 0 
0.0631739 -0.437263 0 0.093649 -0.414195 0 0.144657 -0.411414 0 
0.120156 -0.413247 0 0.111891 -0.43748 0 0.135989 -0.437544 0 
0.181281 -0.436655 0 0.169121 -0.409855 0 0.158954 -0.43618 0 
0.193168 -0.412 0 0.204699 -0.43809 0 0.218018 -0.414932 0 
0.245964 -0.414245 0 0.229828 -0.438159 0 0.288329 -0.418303 0 
0.266957 -0.406581 0 0.277234 -0.438609 0 0.254286 -0.436904 0 
0.328628 -0.437367 0 0.330976 -0.414846 0 0.308716 -0.408309 0 
0.304802 -0.438478 0 0.353369 -0.439454 0 0.366817 -0.422704 0 
0.38522 -0.441067 0 0.387703 -0.411136 0 0.351683 -0.404415 0 
0.440373 -0.422561 0 0.419344 -0.409176 0 0.425585 -0.441208 0 
0.405285 -0.429492 0 0.491283 -0.407457 0 0.488801 -0.438605 0 
0.453055 -0.404009 0 0.457641 -0.440702 0 0.472577 -0.422443 0 
0.5125 -0.4375 0 0.5375 -0.4375 0 0.5375 -0.4125 0 
0.5125 -0.4125 0 -0.5375 -0.3625 0 -0.5375 -0.3875 0 
-0.5125 -0.3875 0 -0.5125 -0.3625 0 -0.464362 -0.387495 0 
-0.488366 -0.384944 0 -0.484766 -0.362521 0 -0.451604 -0.369075 0 
-0.432166 -0.384125 0 -0.408879 -0.385054 0 -0.426185 -0.357995 0 
-0.400565 -0.361733 0 -0.370278 -0.36574 0 -0.3549 -0.385574 0 
-0.383951 -0.384921 0 -0.350541 -0.350521 0 -0.308438 -0.360518 0 
-0.320232 -0.388085 0 -0.335976 -0.372414 0 -0.296376 -0.382631 0 
-0.266721 -0.38239 0 -0.279009 -0.362985 0 -0.218791 -0.357563 0 
-0.219624 -0.38372 0 -0.243423 -0.361011 0 -0.243557 -0.385272 0 
-0.196141 -0.384932 0 -0.172326 -0.385052 0 -0.17096 -0.360224 0 
-0.195435 -0.359291 0 -0.108875 -0.353608 0 -0.110014 -0.380725 0 
-0.149589 -0.353132 0 -0.13164 -0.371297 0 -0.14941 -0.384965 0 
-0.0878733 -0.384677 0 -0.0619384 -0.358999 0 -0.0859364 -0.358349 0 
-0.0640555 -0.383852 0 -0.0276015 -0.365083 0 -0.00546231 -0.377523 0 
-0.041585 -0.383643 0 -0.0195133 -0.396918 0 -0.00141981 -0.352521 0 
0.046194 -0.360362 0 0.0152137 -0.388029 0 0.0399558 -0.385104 0 
0.02119 -0.362457 0 0.0695196 -0.364182 0 0.0646493 -0.388236 0 
0.0943569 -0.367545 0 0.0901243 -0.39075 0 0.143454 -0.387731 0 
0.124617 -0.369355 0 0.109206 -0.350054 0 0.1155 -0.390537 0 
0.150132 -0.362913 0 0.168244 -0.385384 0 0.181453 -0.366917 0 
0.19603 -0.389751 0 0.227062 -0.394436 0 0.201487 -0.352579 0 
0.212883 -0.374182 0 0.2349 -0.364031 0 0.249545 -0.385409 0 
0.268684 -0.371101 0 0.28395 -0.389389 0 0.2916 -0.360195 0 
0.254893 -0.350856 0 0.315118 -0.358636 0 0.33094 -0.386908 0 
0.306925 -0.383125 0 0.34146 -0.368073 0 0.364807 -0.387445 0 
0.390861 -0.390479 0 0.367229 -0.364467 0 0.393324 -0.367914 0 
0.417062 -0.388582 0 0.441279 -0.35346 0 0.422685 -0.365482 0 
0.442717 -0.384315 0 0.462172 -0.368424 0 0.47476 -0.391049 0 
0.48975 -0.373706 0 0.5125 -0.3875 0 0.5375 -0.3625 0 
0.5125 -0.3625 0 0.5375 -0.3875 0 -0.5125 -0.3125 0 
-0.5375 -0.3125 0 -0.5375 -0.3375 0 -0.5125 -0.3375 0 
-0.469516 -0.324139 0 -0.451852 -0.310506 0 -0.462839 -0.348796 0 
-0.48858 -0.309617 0 -0.490064 -0.338854 0 -0.426734 -0.319682 0 
-0.408427 -0.337605 0 -0.440663 -0.338413 0 -0.405449 -0.307798 0 
-0.380903 -0.344333 0 -0.362425 -0.30373 0 -0.359365 -0.327515 0 
-0.385942 -0.320828 0 -0.335969 -0.321099 0 -0.309635 -0.326375 0 
-0.326771 -0.345824 0 -0.3063 -0.304009 0 -0.291029 -0.341021 0 
-0.277513 -0.321771 0 -0.254181 -0.32162 0 -0.261312 -0.346756 0 
-0.207244 -0.33235 0 -0.221927 -0.311781 0 -0.233327 -0.335275 0 
-0.243574 -0.300444 0 -0.183268 -0.335333 0 -0.192101 -0.309739 0 
-0.16902 -0.30531 0 -0.160646 -0.329642 0 -0.128381 -0.341466 0 
-0.139514 -0.318331 0 -0.116635 -0.314827 0 -0.0751175 -0.334039 0 
-0.0988405 -0.329668 0 -0.0539643 -0.323723 0 -0.0819099 -0.307795 0 
-0.00671297 -0.313549 0 -0.0431527 -0.346769 0 -0.0197362 -0.337185 0 
-0.0325569 -0.314986 0 0.0161143 -0.302841 0 0.0322156 -0.338024 0 
0.0369342 -0.312162 0 0.0107034 -0.330658 0 0.0874404 -0.307717 0 
0.0968651 -0.329035 0 0.0779423 -0.341724 0 0.0560334 -0.333497 0 
0.0648715 -0.311575 0 0.122404 -0.322578 0 0.134692 -0.34285 0 
0.113711 -0.301492 0 0.144344 -0.306642 0 0.176674 -0.312539 0 
0.188911 -0.33231 0 0.154719 -0.326985 0 0.167884 -0.346585 0 
0.244618 -0.3284 0 0.22366 -0.341574 0 0.232309 -0.307465 0 
0.211386 -0.320513 0 0.298711 -0.332354 0 0.29 -0.308022 0 
0.276642 -0.340087 0 0.266906 -0.3175 0 0.322152 -0.333392 0 
0.315706 -0.30865 0 0.33952 -0.308589 0 0.342248 -0.345392 0 
0.389413 -0.327159 0 0.372972 -0.343418 0 0.354946 -0.325372 0 
0.371765 -0.308202 0 0.428819 -0.303952 0 0.403829 -0.348258 0 
0.420044 -0.331991 0 0.405088 -0.309411 0 0.442016 -0.32789 0 
0.487541 -0.349407 0 0.465527 -0.317571 0 0.485146 -0.300357 0 
0.490263 -0.324007 0 0.465295 -0.342889 0 0.5125 -0.3375 0 
0.5125 -0.3125 0 0.5375 -0.3125 0 0.5375 -0.3375 0 
-0.5125 -0.2625 0 -0.5125 -0.2875 0 -0.5375 -0.2875 0 
-0.5375 -0.2625 0 -0.466983 -0.260502 0 -0.465851 -0.289748 0 
-0.489077 -0.257079 0 -0.487973 -0.28369 0 -0.445791 -0.272319 0 
-0.422126 -0.261872 0 -0.411491 -0.284009 0 -0.434052 -0.293359 0 
-0.350758 -0.282501 0 -0.366409 -0.26581 0 -0.391518 -0.269916 0 
-0.382472 -0.29234 0 -0.306249 -0.251054 0 -0.311672 -0.279479 0 
-0.332203 -0.29849 0 -0.330431 -0.266831 0 -0.282975 -0.299105 0 
-0.270609 -0.259416 0 -0.289178 -0.272716 0 -0.263379 -0.288298 0 
-0.206564 -0.291251 0 -0.228001 -0.280074 0 -0.248209 -0.266946 0 
-0.218814 -0.256378 0 -0.178144 -0.281928 0 -0.158911 -0.269885 0 
-0.197007 -0.267676 0 -0.10103 -0.295012 0 -0.104619 -0.269063 0 
-0.147656 -0.294338 0 -0.134949 -0.265303 0 -0.125122 -0.287732 0 
-0.0592186 -0.269978 0 -0.0805937 -0.27739 0 -0.0608248 -0.298811 0 
-0.0826217 -0.251226 0 -0.0395865 -0.287915 0 -0.0359814 -0.260208 0 
-0.0135824 -0.263444 0 -0.0172289 -0.290729 0 0.0449865 -0.257158 0 
0.0333642 -0.281527 0 0.00526692 -0.280863 0 0.0194 -0.259674 0 
0.0667865 -0.261573 0 0.077071 -0.282333 0 0.0964664 -0.257275 0 
0.0534498 -0.289777 0 0.122454 -0.267871 0 0.100717 -0.281975 0 
0.135919 -0.285692 0 0.144082 -0.253508 0 0.166148 -0.2917 0 
0.159528 -0.269777 0 0.188407 -0.278349 0 0.198906 -0.299781 0 
0.184464 -0.255702 0 0.219719 -0.286325 0 0.24333 -0.276963 0 
0.211299 -0.264342 0 0.236898 -0.255279 0 0.297282 -0.266688 0 
0.280467 -0.287085 0 0.267537 -0.267499 0 0.255542 -0.296802 0 
0.310583 -0.285907 0 0.347293 -0.256869 0 0.322713 -0.260364 0 
[...]
POINT_DATA 2798
SCALARS id float
LOOKUP_TABLE default
2601 2620 2621 2600 2640 2643 2641 2642 2647 
2645 2646 2644 2648 2649 2650 2651 2652 2653 
2654 2655 2659 2658 2657 2656 2662 2661 2660 
2663 2666 2667 2664 2665 2671 2670 2668 2669 
2674 2673 2675 2672 2676 2680 2681 2678 2679 
2677 2683 2684 2685 2682 2689 2686 2688 2687 
2691 2692 2690 2693 2695 2697 2694 2696 2699 
2698 2701 2700 2704 2703 2702 2705 2707 2708 
2706 2709 2713 2712 2710 2711 2717 2715 2716 
2714 2721 2720 2718 2719 2743 2723 2722 2742 
2602 2603 2623 2622 1696 1660 1697 1678 1714 
1732 1750 1768 1840 1804 1823 1786 1913 1967 
1858 1949 1894 1876 1930 1912 1966 1985 1984 
1948 2111 2093 2129 2020 2147 2038 2056 2092 
2165 2184 2074 2183 2110 2219 2128 2201 2237 
2218 2164 2146 2291 2310 2182 2200 2329 2254 
2236 2328 2331 2330 2272 2290 2308 2347 2309 
2350 2327 2349 2365 2326 2364 2366 2348 2346 
2344 2363 2368 2345 2362 2383 2380 2371 2370 
2367 2390 2382 2386 2387 2384 2389 2381 2385 
2724 2744 2745 2725 2605 2604 2624 2625 1715 
1661 1679 1787 1805 1841 1824 1842 1859 1877 
1822 1895 1950 1931 1914 1986 2003 2004 2075 
2112 2002 2057 2130 2148 2167 2131 2221 2202 
2185 2203 2166 2220 2257 2239 2238 2275 2274 
2256 2255 2293 2312 2273 2311 2292 2315 2313 
2300 2332 2333 2317 2283 2316 2336 2334 2335 
2352 2351 2248 2353 2318 2354 2284 2369 1461 
2195 1620 2372 2337 340 2267 2090 0 1101 
2231 1341 2213 2391 280 2388 2355 2726 2747 
2727 2746 2627 2607 2606 2626 1716 1769 1733 
1698 1662 1825 1843 1806 1862 1860 1878 1896 
1861 1933 2005 1932 2023 2022 2040 2058 2021 
2094 2076 2039 2077 2149 2113 2150 2186 2222 
2204 2223 2258 2240 2259 2241 2278 2276 2294 
2277 2297 2296 2298 2295 2265 2247 2282 2314 
2299 2125 2230 2212 2018 1441 2142 21 2266 
1481 1875 1521 1362 20 1161 60 100 1460 
1541 1181 1122 1141 1281 1201 1540 1440 1420 
1400 1520 1221 2301 1183 1321 320 2373 2728 
2729 2749 2748 2629 2628 2608 2609 1752 1734 
1717 1680 1751 1807 1844 1788 1915 1897 1880 
1879 1969 1987 1968 1951 2041 2060 2024 2059 
2095 2096 2078 2097 2132 2169 2114 2224 2207 
2168 2205 2206 2225 2208 2242 2191 2260 2243 
2261 2279 2263 2246 2280 2262 2194 2264 2054 
2281 2072 2229 1929 1893 1522 1581 1838 120 
1911 140 1361 1946 180 1600 1301 40 1561 
1928 160 1910 1820 1040 1580 1261 1241 1766 
1729 1767 1001 1081 1121 1873 2731 2750 2751 
2730 2611 2630 2610 2631 1753 1663 1771 1735 
1770 1826 1881 1789 1898 1935 1916 1953 1971 
1988 1970 1934 1952 2043 2042 2006 2061 2098 
2062 2079 2080 2081 2115 2133 2099 2116 2188 
2187 2190 2151 2172 2173 2156 2189 2174 2140 
2209 2139 2245 2244 2226 2227 2193 2228 2211 
2036 2175 2177 2159 2124 2035 2176 1821 1857 
2107 1839 1803 1981 1998 1731 1 1982 1837 
1963 462 1926 1942 900 1892 1802 1560 1853 
1749 1713 1784 1300 1891 1818 1712 2732 2733 
2753 2752 2633 2613 2612 2632 1790 1699 1917 
1863 1901 1900 1882 1899 1918 1954 1936 1972 
2007 1990 2008 1989 2027 2044 2025 2026 2045 
2063 2010 2028 2046 2064 2029 1993 2047 2117 
2170 2134 2082 2152 2135 2065 2155 2100 2136 
2153 2101 2171 2192 2138 2120 2123 2154 2210 
2158 2157 2089 2052 2141 2071 2087 2070 2068 
2053 2105 2050 2085 2106 2000 2088 2017 2034 
1964 1856 1693 1980 2016 1874 820 762 1979 
1180 542 1909 1783 1120 1819 1675 1080 1220 
2755 2734 2754 2735 2634 2635 2614 2615 1808 
1718 1772 1681 1846 1864 1827 1845 1883 1919 
1937 1902 1938 1973 1955 1903 1956 1939 1974 
1991 2009 1992 1976 1977 1924 1905 1958 1923 
1975 1817 2030 1835 1959 1871 1941 1852 2011 
1711 1816 1781 2012 2083 2048 1994 1995 1925 
1705 1851 2137 1798 2119 2121 1689 1723 1960 
1780 2118 2122 2066 1797 2103 2014 2104 2084 
2102 2049 2015 2051 2033 1908 2069 2032 1785 
1890 1999 80 1709 1962 1997 1945 2145 2325 
1676 2757 2756 2737 2736 2637 2617 2636 2616 
1736 1719 1700 1664 1682 1754 1809 1865 1866 
1884 1920 1738 1885 1867 220 1829 1792 1868 
1848 1957 1921 1811 1831 1940 1922 1904 1849 
1887 1870 1739 1813 1722 1869 1794 1758 1886 
1741 1834 1832 1850 1775 1727 1776 1670 1795 
1777 1740 1779 2215 1742 1815 1906 2013 1673 
1745 2357 1944 1708 1799 1746 1978 1100 2031 
1762 1814 1888 2086 2067 2323 1961 1927 1140 
2377 1996 1710 2306 2288 1889 2738 2758 2759 
2739 2566 2564 2565 2567 2568 2571 2570 2569 
2575 2572 2574 2573 2579 2577 2578 2576 2582 
2583 2581 2580 2585 2587 2584 2586 2591 2590 
2588 2589 2595 2594 2592 2593 2598 2599 2597 
2596 2639 2638 2619 2618 1701 1683 1665 941 
1720 1737 1666 1828 1847 1791 1810 1062 1102 
1601 1773 1702 1755 1684 1667 1401 2160 1222 
1703 1677 1021 1669 861 1830 1262 1793 1685 
402 1812 260 2338 980 1774 641 2392 1757 
1721 920 2356 2374 1756 1686 1142 2250 1704 
1061 404 843 2232 2320 343 2234 1282 1760 
2303 681 940 2251 1283 2361 2214 1543 1674 
1778 1796 1691 1726 1744 1833 1671 2376 1943 
2359 1759 2198 2375 1725 2397 1728 1695 2740 
2760 2741 2761 2763 2762 2765 2764 2769 2767 
2768 2766 2772 2771 2770 2773 2774 2775 2777 
2776 2778 2780 2781 2779 2783 2782 2785 2784 
2789 2788 2787 2786 2791 2790 2793 2792 2796 
2795 2797 2794 2378 2321 1690 520 1263 341 
2055 1801 1500 780 162 1145 680 1730 1836 
2289 1380 421 1765 2217 720 2342 223 1200 
460 1800 1748 1747 1041 2091 802 482 881 
1242 1320 1872 1260 1907 822 921 1764 862 
1782 263 561 281 1854 420 1692 1643 363 
981 541 2285 221 1668 1202 620 1340 540 
481 1694 560 362 701 101 2319 422 2178 
682 1240 381 2181 501 521 423 321 124 
241 123 600 264 442 721 1525 901 2249 
262 240 2143 722 361 463 1000 401 783 
801 742 621 224 403 760 382 703 962 
2126 1182 1502 1523 883 903 1402 1342 1023 
1947 1687 1043 723 2252 1621 1184 800 1763 
1022 1724 961 2343 1707 2396 2271 2394 601 
1582 2179 1303 640 41 1743 1123 461 1542 
1761 1223 1020 1672 2019 2287 1688 806 2199 
2341 2339 761 2270 2360 2304 163 2037 2307 
2180 1480 1855 786 1060 2233 2196 1105 1483 
1422 300 2108 1004 766 904 984 1544 1302 
845 2197 1124 1045 2109 1983 1064 1564 964 
1602 1143 1383 200 1641 1264 141 1706 660 
360 1224 1363 81 143 1344 2324 1065 42 
261 61 480 2268 2340 1404 83 2162 1443 
1563 500 22 1385 1364 1403 860 182 1384 
3 1423 2269 2379 2127 1280 1360 104 2286 
2322 1160 2001 121 43 700 1604 441 122 
84 380 302 1605 1965 102 103 4 1485 
1603 1585 1504 1565 740 62 1505 105 144 
282 242 6 301 85 5 283 222 580 
1645 323 184 383 27 661 203 960 781 
304 1322 1381 364 245 782 1421 522 582 
804 284 342 841 741 922 2302 1243 1082 
1003 803 2358 1203 923 2216 823 622 563 
643 763 1162 201 2305 1044 744 1382 1063 
983 1204 181 161 2235 864 963 1103 2161 
1083 982 884 1042 1185 844 2253 902 625 
840 1144 2163 2395 2393 842 825 704 665 
566 604 605 584 724 546 705 785 526 
506 626 784 646 805 1024 765 745 725 
746 687 1106 905 924 925 1501 1482 1104 
1086 985 1562 1164 945 1463 1025 1225 1244 
1442 907 1066 1125 1085 1087 1424 986 1343 
1503 1047 1366 1462 1323 1006 1186 967 1345 
23 1304 1067 987 1365 1227 1207 1265 63 
400 1524 1644 82 440 1642 1622 1346 1325 
1187 1266 1324 1305 1623 1286 1545 1584 2 
142 1405 1406 1425 1583 1444 44 1465 1426 
1466 1484 1624 1486 25 24 1446 26 45 
1567 1547 880 64 244 344 1506 443 324 
183 165 66 86 243 305 602 322 325 
186 942 285 583 365 702 662 821 1002 
444 683 502 503 562 366 405 543 642 
385 863 544 664 326 1640 943 684 523 
464 623 663 603 882 764 743 1163 504 
824 565 644 485 645 564 524 425 347 
446 585 426 505 545 465 525 486 466 
487 685 507 547 586 527 666 787 606 
686 826 706 885 807 865 944 866 1084 
886 767 867 887 906 827 788 965 847 
848 728 868 849 748 1046 966 689 888 
869 1165 926 1126 1005 946 948 1205 947 
1026 908 1088 927 1007 928 1226 1027 1206 
1284 1285 1245 2073 2144 1166 1128 1069 1109 
1246 1127 1464 1147 1267 1167 1208 1148 1247 
1228 1188 1229 1387 1306 1209 1367 1445 1386 
1347 1307 1368 1327 1546 1407 1487 1428 1586 
1625 1427 1467 1448 1566 1447 1526 204 1468 
1527 65 1647 1646 46 1627 303 166 7 
164 205 47 202 225 185 146 67 147 
206 581 126 483 125 266 345 226 286 
187 424 265 384 227 306 246 346 386 
287 208 209 228 229 247 307 484 327 
624 210 190 249 268 406 289 308 269 
288 250 309 328 329 445 407 367 348 
388 368 427 387 408 448 468 467 447 
488 449 607 567 469 627 548 587 568 
508 647 726 549 588 747 667 846 707 
608 589 668 727 628 648 629 708 688 
669 649 709 670 808 729 768 749 828 
829 769 789 830 889 809 850 870 890 
851 910 909 988 968 891 1068 949 1008 
1107 1146 1108 989 1089 1028 1048 1009 1049 
1029 1090 1030 1050 1110 1070 1130 1091 1129 
1131 1168 1149 1111 1210 1287 1189 1326 1268 
1248 1288 1328 1308 1309 1348 1388 1349 1408 
1329 1369 1409 1429 1488 1606 1449 1626 1507 
1548 1607 1587 1528 1508 1509 1549 1588 1529 
1568 1608 1628 1589 1569 1648 1609 87 8 
106 28 167 145 127 88 148 49 68 
48 207 69 108 107 89 189 128 168 
149 188 129 248 150 169 170 267 132 
171 152 172 211 230 231 191 251 290 
232 270 349 310 271 291 330 369 350 
389 428 390 370 409 411 430 450 410 
429 509 470 489 528 490 529 491 510 
511 569 530 570 550 590 571 551 609 
611 591 610 630 650 651 631 691 690 
710 711 671 672 731 730 750 751 770 
771 790 791 811 831 810 871 872 892 
929 852 931 912 911 930 969 970 950 
951 990 991 971 1010 1011 1012 1031 1032 
992 1072 1052 1071 1092 1051 1093 1113 1132 
1112 1169 1150 1170 1151 1231 1249 1190 1230 
1211 1269 1289 1270 1290 1250 1291 1311 1310 
1330 1331 1351 1370 1350 1389 1371 1410 1469 
1489 1450 1430 1470 1471 1490 1491 1510 1511 
1530 1550 1531 1570 1629 1551 1571 1590 1591 
1649 1610 1630 1631 9 29 1611 1650 11 
50 30 31 10 70 71 51 90 91 
110 109 130 133 131 111 151 153 175 
173 194 174 193 213 214 192 212 252 
253 233 234 293 273 272 292 332 312 
311 352 351 372 331 371 392 412 391 
431 432 452 451 493 471 472 492 512 
531 513 532 572 552 553 573 592 593 
612 613 633 632 653 652 692 712 673 
693 752 732 733 713 753 772 773 792 
812 793 813 833 853 854 832 894 893 
914 873 874 952 932 953 933 913 972 
973 1034 1033 993 1013 1054 1053 1074 1073 
1115 1094 1114 1133 1134 1152 1153 1171 1172 
1192 1212 1233 1191 1251 1252 1232 1253 1271 
1272 1293 1292 1353 1333 1332 1313 1312 1391 
1372 1390 1352 1431 1412 1432 1411 1452 1472 
1473 1451 1513 1492 1493 1512 1553 1552 1533 
1532 1573 1572 1593 1592 1632 1613 1633 1612 
1651 1652 1653 12 13 53 32 33 52 
73 92 72 93 113 155 134 154 112 
196 296 195 276 295 275 255 235 315 
314 274 254 375 313 294 333 354 415 
394 353 395 393 414 373 455 413 434 
435 454 453 475 433 494 495 474 473 
515 555 514 533 534 575 595 554 574 
615 635 594 614 655 675 654 634 674 
715 695 694 735 714 755 775 734 815 
774 795 754 814 794 896 835 834 855 
916 875 935 915 955 895 975 995 1015 
1035 954 934 1055 974 994 1075 1014 1095 
1136 1216 1175 1155 1135 1174 1154 1195 1194 
1173 1255 1214 1193 1235 1234 1213 1275 1254 
1295 1274 1335 1273 1315 1314 1294 1375 1355 
1395 1334 1354 1394 1374 1392 1393 1415 1435 
1373 1455 1413 1475 1433 1434 1414 1495 1454 
1474 1453 1555 1515 1535 1514 1494 1575 1534 
1554 1595 1594 1615 1574 1635 1634 1655 1614 
15 1654 35 14 55 34 95 75 54 
156 94 115 74 215 114 135 176 537 
316 356 557 355 335 577 597 637 334 
396 617 657 436 416 374 677 476 697 
456 717 737 496 757 516 777 535 536 
797 817 556 837 576 877 616 857 596 
917 897 656 636 937 696 676 957 977 
997 736 716 1037 1017 776 756 1057 1077 
796 816 836 856 1117 1097 1177 1137 936 
876 1197 956 1217 976 996 1237 1036 1277 
1257 1016 1056 1076 1317 1297 1096 1337 1357 
1116 1156 1397 1377 1157 1417 1215 1196 1437 
1176 1477 1236 1457 1256 1497 1276 1517 1537 
1296 1557 1316 1577 1597 1376 1356 1336 1617 
1637 1396 1436 1416 1657 17 1456 1476 57 
37 1496 77 97 1516 1536 137 117 1556 
157 1596 177 1576 217 1616 197 1636 237 
1656 277 16 36 56 317 297 96 337 
76 357 136 417 397 116 437 457 216 
257 256 376 477 236 377 517 336 497 
1198 1178 879 899 939 1238 1218 919 1278 
959 979 1258 1039 1318 1019 999 1298 1079 
1338 1358 1059 1378 1099 1119 1398 1458 1438 
1159 1139 1418 1498 1199 1478 1179 1219 1518 
1538 1239 1259 1578 1558 1279 1299 1339 1319 
1618 1598 1359 1658 1379 1638 18 1399 1419 
38 58 1459 1439 78 98 138 1479 1499 
118 1519 178 1539 158 1579 218 198 1559 
238 1599 258 1619 1639 19 278 1659 298 
59 39 338 318 358 79 378 99 119 
139 418 398 458 159 179 478 438 518 
219 199 498 239 259 558 538 279 578 
598 299 618 638 319 339 658 379 359 
678 399 698 718 419 758 459 738 439 
479 778 499 798 539 838 818 519 858 
579 559 878 599 619 918 898 958 938 
659 639 978 699 998 679 1018 719 1038 
739 779 759 1058 1078 1098 799 819 1118 
839 859 1158 1138 2399 2400 2401 2398 2405 
2403 2402 2404 2406 2407 2409 2408 2413 2412 
2411 2410 2414 2416 2417 2415 2420 2421 2418 
2419 2423 2425 2424 2426 2422 2427 2431 2429 
2430 2428 2435 2434 2433 2432 2439 2437 2438 
2436 2441 2443 2442 2440 2446 2447 2445 2444 
2450 2448 2449 2451 2455 2452 2454 2453 2457 
2459 2456 2458 2461 2462 2460 2463 2464 2465 
2467 2466 2471 2470 2469 2468 2474 2475 2472 
2473 2479 2478 2476 2481 2480 2477 2482 2483 
2484 2485 2489 2488 2486 2487 2493 2492 2490 
2491 2497 2496 2495 2494 2499 2498 2500 2501 
2503 2504 2502 2505 2507 2506 2508 2509 2511 
2510 2513 2512 2517 2515 2514 2516 2521 2519 
2518 2520 2525 2522 2523 2524 2527 2526 2528 
2529 2530 2531 2532 2533 2534 2535 2536 2537 
2538 2539 2543 2541 2540 2542 2547 2546 2544 
2545 2548 2549 2550 2551 2553 2554 2555 2552 
2558 2556 2557 2559 2560 2561 2562 2563 
FIELD FieldData 7
r 3 2798 float
-0.5375 -0.4625 0 -0.5125 -0.4875 0 -0.5125 -0.4625 0 
-0.5375 -0.4875 0 -0.487805 -0.4875 0 -0.463415 -0.4625 0 
-0.487805 -0.4625 0 -0.463415 -0.4875 0 -0.414634 -0.4625 0 
-0.439024 -0.4625 0 -0.414634 -0.4875 0 -0.439024 -0.4875 0 
-0.390244 -0.4875 0 -0.390244 -0.4625 0 -0.365854 -0.4875 0 
-0.365854 -0.4625 0 -0.341463 -0.4875 0 -0.341463 -0.4625 0 
-0.317073 -0.4875 0 -0.317073 -0.4625 0 -0.268293 -0.4625 0 
-0.268293 -0.4875 0 -0.292683 -0.4625 0 -0.292683 -0.4875 0 
-0.219512 -0.4875 0 -0.243902 -0.4625 0 -0.243902 -0.4875 0 
-0.219512 -0.4625 0 -0.170732 -0.4875 0 -0.170732 -0.4625 0 
-0.195122 -0.4875 0 -0.195122 -0.4625 0 -0.121951 -0.4625 0 
-0.121951 -0.4875 0 -0.146341 -0.4875 0 -0.146341 -0.4625 0 
-0.0731707 -0.4875 0 -0.097561 -0.4625 0 -0.0731707 -0.4625 0 
-0.097561 -0.4875 0 -0.0487805 -0.4875 0 -1.86265e-08 -0.4875 0 
-1.86265e-08 -0.4625 0 -0.0243903 -0.4875 0 -0.0243903 -0.4625 0 
-0.0487805 -0.4625 0 0.0243902 -0.4625 0 0.0487805 -0.4875 0 
0.0487805 -0.4625 0 0.0243902 -0.4875 0 0.097561 -0.4625 0 
0.0731707 -0.4875 0 0.097561 -0.4875 0 0.0731707 -0.4625 0 
0.121951 -0.4625 0 0.146341 -0.4875 0 0.121951 -0.4875 0 
0.146341 -0.4625 0 0.170732 -0.4625 0 0.195122 -0.4625 0 
0.170732 -0.4875 0 0.195122 -0.4875 0 0.219512 -0.4625 0 
0.219512 -0.4875 0 0.243902 -0.4625 0 0.243902 -0.4875 0 
0.292683 -0.4875 0 0.268293 -0.4625 0 0.268293 -0.4875 0 
0.292683 -0.4625 0 0.317073 -0.4625 0 0.341463 -0.4875 0 
0.317073 -0.4875 0 0.341463 -0.4625 0 0.390244 -0.4625 0 
0.390244 -0.4875 0 0.365854 -0.4875 0 0.365854 -0.4625 0 
0.439024 -0.4625 0 0.414634 -0.4625 0 0.439024 -0.4875 0 
0.414634 -0.4875 0 0.487805 -0.4625 0 0.487805 -0.4875 0 
0.463415 -0.4875 0 0.463415 -0.4625 0 0.5375 -0.4625 0 
0.5125 -0.4625 0 0.5125 -0.4875 0 0.5375 -0.4875 0 
-0.5375 -0.4375 0 -0.5375 -0.4125 0 -0.5125 -0.4125 0 
-0.5125 -0.4375 0 -0.464903 -0.412772 0 -0.488214 -0.436969 0 
-0.48864 -0.410965 0 -0.463796 -0.437779 0 -0.440686 -0.435493 0 
-0.417526 -0.437894 0 -0.442308 -0.407336 0 -0.419663 -0.411996 0 
-0.374532 -0.409363 0 -0.370548 -0.43629 0 -0.397171 -0.410849 0 
-0.393403 -0.437189 0 -0.351543 -0.409265 0 -0.304657 -0.412446 0 
-0.348333 -0.436624 0 -0.329117 -0.410421 0 -0.301906 -0.437927 0 
-0.325489 -0.43664 0 -0.258598 -0.437165 0 -0.280062 -0.433885 0 
-0.261461 -0.41001 0 -0.283453 -0.404553 0 -0.213005 -0.436438 0 
-0.235804 -0.436699 0 -0.215126 -0.409889 0 -0.238266 -0.410566 0 
-0.191803 -0.410752 0 -0.190124 -0.436957 0 -0.168435 -0.411004 0 
-0.167008 -0.436828 0 -0.143366 -0.437771 0 -0.100507 -0.438132 0 
-0.145008 -0.411711 0 -0.124966 -0.401972 0 -0.122145 -0.433125 0 
-0.104325 -0.41105 0 -0.0773054 -0.435924 0 -0.0583766 -0.409652 0 
-0.0547519 -0.437431 0 -0.0816222 -0.410301 0 -0.0358669 -0.413711 0 
-0.00401099 -0.413148 0 -0.00750002 -0.436863 0 -0.0304017 -0.437064 0 
0.0196792 -0.411822 0 0.0433364 -0.410539 0 0.0169533 -0.43788 0 
0.040071 -0.436454 0 0.0677951 -0.412595 0 0.0872709 -0.437894 0 
0.0631739 -0.437263 0 0.093649 -0.414195 0 0.144657 -0.411414 0 
0.120156 -0.413247 0 0.111891 -0.43748 0 0.135989 -0.437544 0 
0.181281 -0.436655 0 0.169121 -0.409855 0 0.158954 -0.43618 0 
0.193168 -0.412 0 0.204699 -0.43809 0 0.218018 -0.414932 0 
0.245964 -0.414245 0 0.229828 -0.438159 0 0.288329 -0.418303 0 
0.266957 -0.406581 0 0.277234 -0.438609 0 0.254286 -0.436904 0 
0.328628 -0.437367 0 0.330976 -0.414846 0 0.308716 -0.408309 0 
0.304802 -0.438478 0 0.353369 -0.439454 0 0.366817 -0.422704 0 
0.38522 -0.441067 0 0.387703 -0.411136 0 0.351683 -0.404415 0 
0.440373 -0.422561 0 0.419344 -0.409176 0 0.425585 -0.441208 0 
0.405285 -0.429492 0 0.491283 -0.407457 0 0.488801 -0.438605 0 
0.453055 -0.404009 0 0.457641 -0.440702 0 0.472577 -0.422443 0 
0.5125 -0.4375 0 0.5375 -0.4375 0 0.5375 -0.4125 0 
0.5125 -0.4125 0 -0.5375 -0.3625 0 -0.5375 -0.3875 0 
-0.5125 -0.3875 0 -0.5125 -0.3625 0 -0.464362 -0.387495 0 
-0.488366 -0.384944 0 -0.484766 -0.362521 0 -0.451604 -0.369075 0 
-0.432166 -0.384125 0 -0.408879 -0.385054 0 -0.426185 -0.357995 0 
-0.400565 -0.361733 0 -0.370278 -0.36574 0 -0.3549 -0.385574 0 
-0.383951 -0.384921 0 -0.350541 -0.350521 0 -0.308438 -0.360518 0 
-0.320232 -0.388085 0 -0.335976 -0.372414 0 -0.296376 -0.382631 0 
-0.266721 -0.38239 0 -0.279009 -0.362985 0 -0.218791 -0.357563 0 
-0.219624 -0.38372 0 -0.243423 -0.361011 0 -0.243557 -0.385272 0 
-0.196141 -0.384932 0 -0.172326 -0.385052 0 -0.17096 -0.360224 0 
-0.195435 -0.359291 0 -0.108875 -0.353608 0 -0.110014 -0.380725 0 
-0.149589 -0.353132 0 -0.13164 -0.371297 0 -0.14941 -0.384965 0 
-0.0878733 -0.384677 0 -0.0619384 -0.358999 0 -0.0859364 -0.358349 0 
-0.0640555 -0.383852 0 -0.0276015 -0.365083 0 -0.00546231 -0.377523 0 
-0.041585 -0.383643 0 -0.0195133 -0.396918 0 -0.00141981 -0.352521 0 
0.046194 -0.360362 0 0.0152137 -0.388029 0 0.0399558 -0.385104 0 
0.02119 -0.362457 0 0.0695196 -0.364182 0 0.0646493 -0.388236 0 
0.0943569 -0.367545 0 0.0901243 -0.39075 0 0.143454 -0.387731 0 
0.124617 -0.369355 0 0.109206 -0.350054 0 0.1155 -0.390537 0 
0.150132 -0.362913 0 0.168244 -0.385384 0 0.181453 -0.366917 0 
0.19603 -0.389751 0 0.227062 -0.394436 0 0.201487 -0.352579 0 
0.212883 -0.374182 0 0.2349 -0.364031 0 0.249545 -0.385409 0 
0.268684 -0.371101 0 0.28395 -0.389389 0 0.2916 -0.360195 0 
0.254893 -0.350856 0 0.315118 -0.358636 0 0.33094 -0.386908 0 
0.306925 -0.383125 0 0.34146 -0.368073 0 0.364807 -0.387445 0 
0.390861 -0.390479 0 0.367229 -0.364467 0 0.393324 -0.367914 0 
0.417062 -0.388582 0 0.441279 -0.35346 0 0.422685 -0.365482 0 
0.442717 -0.384315 0 0.462172 -0.368424 0 0.47476 -0.391049 0 
0.48975 -0.373706 0 0.5125 -0.3875 0 0.5375 -0.3625 0 
0.5125 -0.3625 0 0.5375 -0.3875 0 -0.5125 -0.3125 0 
-0.5375 -0.3125 0 -0.5375 -0.3375 0 -0.5125 -0.3375 0 
-0.469516 -0.324139 0 -0.451852 -0.310506 0 -0.462839 -0.348796 0 
-0.48858 -0.309617 0 -0.490064 -0.338854 0 -0.426734 -0.319682 0 
-0.408427 -0.337605 0 -0.440663 -0.338413 0 -0.405449 -0.307798 0 
-0.380903 -0.344333 0 -0.362425 -0.30373 0 -0.359365 -0.327515 0 
-0.385942 -0.320828 0 -0.335969 -0.321099 0 -0.309635 -0.326375 0 
-0.326771 -0.345824 0 -0.3063 -0.304009 0 -0.291029 -0.341021 0 
-0.277513 -0.321771 0 -0.254181 -0.32162 0 -0.261312 -0.346756 0 
-0.207244 -0.33235 0 -0.221927 -0.311781 0 -0.233327 -0.335275 0 
-0.243574 -0.300444 0 -0.183268 -0.335333 0 -0.192101 -0.309739 0 
-0.16902 -0.30531 0 -0.160646 -0.329642 0 -0.128381 -0.341466 0 
-0.139514 -0.318331 0 -0.116635 -0.314827 0 -0.0751175 -0.334039 0 
-0.0988405 -0.329668 0 -0.0539643 -0.323723 0 -0.0819099 -0.307795 0 
-0.00671297 -0.313549 0 -0.0431527 -0.346769 0 -0.0197362 -0.337185 0 
-0.0325569 -0.314986 0 0.0161143 -0.302841 0 0.0322156 -0.338024 0 