# vtk DataFile Version 4.0
vtk output
ASCII
DATASET POLYDATA
FIELD FieldData 4
domain 1 3 string
domain_min:-20|-15
domain_max:20|15
cell_size:0.05

variables 1 2 string
dt:0.000372678
T:0.643986

constants 1 10 string
xsize:2
ysize:1
csize:0.05
dx:0.0238095
h:0.025
rho0:1000
mass:0.566894
g:1|0
c:13.4164
CFL:0.2

functions 1 8 string
time:T=(T+dt)
continuity:rho_dot=((-(rho*sph_D00(v,mass,rho,Wp52220)))+(((0.1*c)*h)*sph_L00(rho,mass,rho,Wp52220)))
irho:rho=(rho+int1((rho_dot,dt))
EOS:p=(((c^2)*(rho-rho0))+10000)
euler:a=if((gid,(0*v),(((-((1/rho)*sph_G11(p,mass,rho,Wp52220)))+(0.01*sph_L00(v,mass,rho,Wp52220)))+g))
vel:v=(v+int1((a,dt))
pos:r=(r+int1((v,dt))
new_dt:dt=(CFL*min((sqrt(((h/fmax(magnitude((a)))),(h/c)))

POINTS 2798 float
-0.5125 -0.4875 0 -0.5125 -0.4625 0 -0.5375 -0.4875 0 
-0.5375 -0.4625 0 -0.487805 -0.4875 0 -0.487805 -0.4625 0 
-0.463415 -0.4875 0 -0.463415 -0.4625 0 -0.439024 -0.4625 0 
-0.414634 -0.4625 0 -0.439024 -0.4875 0 -0.414634 -0.4875 0 
-0.390244 -0.4625 0 -0.390244 -0.4875 0 -0.365854 -0.4875 0 
-0.365854 -0.4625 0 -0.341463 -0.4625 0 -0.317073 -0.4625 0 
-0.341463 -0.4875 0 -0.317073 -0.4875 0 -0.292683 -0.4875 0 
-0.292683 -0.4625 0 -0.268293 -0.4625 0 -0.268293 -0.4875 0 
-0.219512 -0.4625 0 -0.219512 -0.4875 0 -0.243902 -0.4625 0 
-0.243902 -0.4875 0 -0.170732 -0.4875 0 -0.170732 -0.4625 0 
-0.195122 -0.4875 0 -0.195122 -0.4625 0 -0.121951 -0.4875 0 
-0.121951 -0.4625 0 -0.146341 -0.4875 0 -0.146341 -0.4625 0 
-0.097561 -0.4875 0 -0.0731707 -0.4625 0 -0.097561 -0.4625 0 
-0.0731707 -0.4875 0 -1.86265e-08 -0.4875 0 -0.0487805 -0.4875 0 
-1.86265e-08 -0.4625 0 -0.0487805 -0.4625 0 -0.0243903 -0.4625 0 
-0.0243903 -0.4875 0 0.0243902 -0.4625 0 0.0487805 -0.4875 0 
0.0487805 -0.4625 0 0.0243902 -0.4875 0 0.0731707 -0.4625 0 
0.097561 -0.4875 0 0.097561 -0.4625 0 0.0731707 -0.4875 0 
0.121951 -0.4625 0 0.121951 -0.4875 0 0.146341 -0.4625 0 
0.146341 -0.4875 0 0.170732 -0.4875 0 0.170732 -0.4625 0 
0.195122 -0.4875 0 0.195122 -0.4625 0 0.243902 -0.4625 0 
0.243902 -0.4875 0 0.219512 -0.4625 0 0.219512 -0.4875 0 
0.292683 -0.4625 0 0.268293 -0.4875 0 0.268293 -0.4625 0 
0.292683 -0.4875 0 0.317073 -0.4875 0 0.341463 -0.4625 0 
0.317073 -0.4625 0 0.341463 -0.4875 0 0.365854 -0.4625 0 
0.390244 -0.4875 0 0.390244 -0.4625 0 0.365854 -0.4875 0 
0.414634 -0.4875 0 0.414634 -0.4625 0 0.439024 -0.4875 0 
0.439024 -0.4625 0 0.463415 -0.4875 0 0.463415 -0.4625 0 
0.487805 -0.4875 0 0.487805 -0.4625 0 0.5375 -0.4625 0 
0.5125 -0.4875 0 0.5375 -0.4875 0 0.5125 -0.4625 0 
-0.5125 -0.4375 0 -0.5125 -0.4125 0 -0.5375 -0.4125 0 
-0.5375 -0.4375 0 -0.487825 -0.437868 0 -0.464377 -0.40969 0 
-0.463869 -0.436474 0 -0.487908 -0.413055 0 -0.44076 -0.413007 0 
-0.415549 -0.43698 0 -0.43981 -0.437853 0 -0.417002 -0.410827 0 
-0.352266 -0.409437 0 -0.373614 -0.404721 0 -0.371463 -0.4343 0 
-0.392631 -0.436038 0 -0.394689 -0.408379 0 -0.349814 -0.436971 0 
-0.329766 -0.409885 0 -0.32698 -0.436525 0 -0.304353 -0.436631 0 
-0.306953 -0.409608 0 -0.28172 -0.436642 0 -0.258557 -0.437247 0 
-0.261309 -0.411056 0 -0.284308 -0.409772 0 -0.212766 -0.413615 0 
-0.234293 -0.437982 0 -0.209355 -0.438053 0 -0.237392 -0.413162 0 
-0.18759 -0.414537 0 -0.183928 -0.43834 0 -0.161676 -0.415629 0 
-0.157769 -0.438716 0 -0.106094 -0.437902 0 -0.109803 -0.413978 0 
-0.135543 -0.415129 0 -0.131562 -0.438421 0 -0.0840113 -0.414842 0 
-0.0550254 -0.438044 0 -0.0583952 -0.41433 0 -0.0805605 -0.438383 0 
-0.00400209 -0.438044 0 -0.00659178 -0.41446 0 -0.0325861 -0.41471 0 
-0.0295745 -0.438208 0 0.0215262 -0.438072 0 0.0195593 -0.414674 0 
0.0459544 -0.415215 0 0.0473043 -0.438341 0 0.0730784 -0.438135 0 
0.0984883 -0.438102 0 0.0723672 -0.414811 0 0.098497 -0.414522 0 
0.124297 -0.413838 0 0.149652 -0.413043 0 0.148296 -0.437622 0 
0.123646 -0.437871 0 0.17244 -0.437429 0 0.174479 -0.412482 0 
0.199196 -0.413717 0 0.19686 -0.437969 0 0.224229 -0.413823 0 
0.246704 -0.437737 0 0.221885 -0.438033 0 0.249202 -0.413246 0 
0.27121 -0.437808 0 0.274055 -0.413316 0 0.295715 -0.437719 0 
0.298676 -0.412946 0 0.322822 -0.412456 0 0.320037 -0.437571 0 
0.346776 -0.412492 0 0.344178 -0.43756 0 0.36847 -0.437868 0 
0.370888 -0.413066 0 0.392756 -0.437672 0 0.394738 -0.412222 0 
0.439681 -0.43666 0 0.440632 -0.410025 0 0.417885 -0.411114 0 
0.416552 -0.437209 0 0.487929 -0.438421 0 0.463559 -0.412767 0 
0.463138 -0.437837 0 0.487937 -0.41439 0 0.5125 -0.4125 0 
0.5375 -0.4125 0 0.5375 -0.4375 0 0.5125 -0.4375 0 
-0.5125 -0.3875 0 -0.5375 -0.3625 0 -0.5375 -0.3875 0 
-0.5125 -0.3625 0 -0.465777 -0.353526 0 -0.464916 -0.382113 0 
-0.487946 -0.388101 0 -0.488035 -0.362923 0 -0.418658 -0.384002 0 
-0.420902 -0.356626 0 -0.441816 -0.387833 0 -0.443276 -0.362012 0 
-0.355942 -0.352421 0 -0.354245 -0.381023 0 -0.399344 -0.352186 0 
-0.375742 -0.37571 0 -0.396899 -0.38034 0 -0.333836 -0.356309 0 
-0.310995 -0.356236 0 -0.309197 -0.382827 0 -0.332058 -0.383258 0 
-0.287881 -0.356467 0 -0.263356 -0.384582 0 -0.286344 -0.383016 0 
-0.264807 -0.358008 0 -0.216841 -0.363791 0 -0.239634 -0.387992 0 
-0.2411 -0.362658 0 -0.21531 -0.388849 0 -0.164815 -0.39224 0 
-0.166825 -0.368575 0 -0.192187 -0.366011 0 -0.19044 -0.390424 0 
-0.115308 -0.366834 0 -0.141074 -0.368343 0 -0.138903 -0.391838 0 
-0.113101 -0.390378 0 -0.0633474 -0.367341 0 -0.0612697 -0.390771 0 
-0.087051 -0.391425 0 -0.0892712 -0.368165 0 -0.0352491 -0.391487 0 
-0.00902034 -0.391182 0 -0.0372343 -0.368409 0 -0.0109763 -0.368007 0 
0.0155068 -0.368783 0 0.0441525 -0.392432 0 0.017418 -0.391641 0 
0.0424012 -0.369871 0 0.0976824 -0.391458 0 0.069513 -0.369517 0 
0.070997 -0.391973 0 0.0968146 -0.368977 0 0.12409 -0.367887 0 
0.124227 -0.390486 0 0.176583 -0.388332 0 0.151355 -0.366631 0 
0.150605 -0.389355 0 0.178259 -0.36507 0 0.230634 -0.365751 0 
0.201996 -0.38968 0 0.227279 -0.389587 0 0.204589 -0.366223 0 
0.277462 -0.388921 0 0.252498 -0.38902 0 0.256196 -0.364934 0 
0.280931 -0.364145 0 0.304924 -0.362622 0 0.349426 -0.387182 0 
0.328546 -0.36104 0 0.325845 -0.386951 0 0.301962 -0.387936 0 
0.351751 -0.361433 0 0.375169 -0.362723 0 0.396827 -0.386104 0 
0.398469 -0.359552 0 0.373266 -0.388046 0 0.442107 -0.383037 0 
0.443554 -0.356039 0 0.419609 -0.384613 0 0.420935 -0.357836 0 
0.488386 -0.365404 0 0.488141 -0.390108 0 0.465499 -0.360226 0 
0.464411 -0.387023 0 0.5375 -0.3625 0 0.5125 -0.3625 0 
0.5125 -0.3875 0 0.5375 -0.3875 0 -0.5125 -0.3125 0 
-0.5125 -0.3375 0 -0.5375 -0.3125 0 -0.5375 -0.3375 0 
-0.488353 -0.337204 0 -0.467172 -0.323735 0 -0.488506 -0.310447 0 
-0.445481 -0.335178 0 -0.447013 -0.307146 0 -0.42546 -0.301372 0 
-0.423614 -0.329067 0 -0.401848 -0.324366 0 -0.38003 -0.319726 0 
-0.357754 -0.324231 0 -0.377867 -0.347477 0 -0.312336 -0.329878 0 
-0.336152 -0.302458 0 -0.312819 -0.303811 0 -0.33535 -0.329223 0 
-0.289226 -0.304241 0 -0.288961 -0.330222 0 -0.265647 -0.30543 0 
-0.265671 -0.33153 0 -0.217446 -0.338738 0 -0.216836 -0.313884 0 
-0.241627 -0.312799 0 -0.241844 -0.337509 0 -0.166779 -0.321125 0 
-0.192086 -0.317229 0 -0.167584 -0.344777 0 -0.192801 -0.341515 0 
-0.141861 -0.344769 0 -0.140874 -0.321264 0 -0.114654 -0.319853 0 
-0.115933 -0.343247 0 -0.0885079 -0.321851 0 -0.0637729 -0.344078 0 
-0.0899272 -0.344929 0 -0.0619863 -0.321076 0 -0.00902634 -0.321768 0 
-0.0111418 -0.344836 0 -0.0356335 -0.322633 0 -0.0341756 -0.299989 0 
-0.0375135 -0.345446 0 0.0154074 -0.346069 0 0.0447636 -0.325396 0 
0.019335 -0.301392 0 0.0424011 -0.347517 0 0.01762 -0.323625 0 
0.0464947 -0.303228 0 0.0997401 -0.324923 0 0.0721831 -0.325448 0 
0.097592 -0.3469 0 0.0737457 -0.303369 0 0.0699477 -0.347419 0 
0.128553 -0.301287 0 0.12524 -0.345719 0 0.127258 -0.323571 0 
0.101228 -0.302837 0 0.179996 -0.342412 0 0.181897 -0.319841 0 
0.152712 -0.344351 0 0.154676 -0.322147 0 0.235234 -0.319288 0 
0.206849 -0.343437 0 0.233424 -0.342389 0 0.208575 -0.320827 0 
0.261118 -0.316752 0 0.259295 -0.340829 0 0.283778 -0.338652 0 
0.285886 -0.312971 0 0.332188 -0.308633 0 0.33054 -0.334951 0 
0.309406 -0.310638 0 0.30719 -0.336838 0 0.376417 -0.337032 0 
0.399135 -0.332462 0 0.353484 -0.335059 0 0.355154 -0.308494 0 
0.399877 -0.304624 0 0.377764 -0.310683 0 0.445893 -0.304116 0 
0.421411 -0.331133 0 0.444572 -0.329723 0 0.422167 -0.304847 0 
0.468295 -0.303871 0 0.48913 -0.314058 0 0.488661 -0.34017 0 
0.466733 -0.332415 0 0.5375 -0.3375 0 0.5125 -0.3125 0 
0.5375 -0.3125 0 0.5125 -0.3375 0 -0.5125 -0.2625 0 
-0.5375 -0.2875 0 -0.5375 -0.2625 0 -0.5125 -0.2875 0 
-0.466842 -0.292973 0 -0.465156 -0.261486 0 -0.488149 -0.283898 0 
-0.487648 -0.258771 0 -0.402984 -0.269208 0 -0.425689 -0.273869 0 
-0.447252 -0.277323 0 -0.403365 -0.296777 0 -0.358858 -0.296722 0 
-0.380627 -0.264687 0 -0.358401 -0.269719 0 -0.381257 -0.292143 0 
-0.312458 -0.252402 0 -0.335818 -0.27604 0 -0.312387 -0.278041 0 
-0.288557 -0.278446 0 -0.264187 -0.254255 0 -0.28844 -0.252911 0 
-0.264806 -0.279717 0 -0.214498 -0.264863 0 -0.240544 -0.288662 0 
-0.215456 -0.289314 0 -0.239747 -0.264829 0 -0.18941 -0.269301 0 
-0.163895 -0.274042 0 -0.165212 -0.297575 0 -0.162295 -0.250981 0 
-0.190488 -0.293173 0 -0.113438 -0.296422 0 -0.135762 -0.250914 0 
-0.13808 -0.274131 0 -0.139392 -0.29776 0 -0.111968 -0.272831 0 
-0.0547475 -0.252713 0 -0.0818987 -0.253478 0 -0.086193 -0.275892 0 
-0.0871836 -0.298918 0 -0.0593365 -0.275374 0 -0.0607693 -0.298138 0 
-0.0329469 -0.277352 0 -0.00618534 -0.275829 0 -0.00167846 -0.252189 0 
-0.00755727 -0.298854 0 -0.028196 -0.254699 0 0.0200314 -0.278837 0 
0.0497479 -0.258285 0 0.0232447 -0.255845 0 0.0465839 -0.28076 0 
0.0764958 -0.258874 0 0.0737664 -0.281231 0 0.130811 -0.25621 0 
0.103813 -0.258371 0 0.101052 -0.280674 0 0.12834 -0.278908 0 
0.155606 -0.299765 0 0.181614 -0.273969 0 0.155319 -0.277156 0 
0.157645 -0.254551 0 0.187911 -0.252355 0 0.182361 -0.2972 0 
0.248965 -0.252826 0 0.209251 -0.298038 0 0.207807 -0.275669 0 
0.235396 -0.296104 0 0.237579 -0.274378 0 0.219289 -0.255976 0 
0.262059 -0.293368 0 0.288561 -0.288058 0 0.291668 -0.26173 0 
[...]
POINT_DATA 2798
SCALARS id float
LOOKUP_TABLE default
2620 2621 2600 2601 2640 2641 2642 2643 2645 
2647 2644 2646 2649 2648 2650 2651 2653 2655 
2652 2654 2656 2657 2659 2658 2663 2662 2661 
2660 2666 2667 2664 2665 2670 2671 2668 2669 
2672 2675 2673 2674 2680 2676 2681 2677 2679 
2678 2683 2684 2685 2682 2687 2688 2689 2686 
2691 2690 2693 2692 2694 2695 2696 2697 2701 
2700 2699 2698 2705 2702 2703 2704 2706 2709 
2707 2708 2711 2712 2713 2710 2714 2715 2716 
2717 2718 2719 2720 2721 2743 2722 2742 2723 
2622 2623 2603 2602 1660 1679 1678 1661 1697 
1714 1696 1715 1769 1751 1750 1732 1733 1768 
1787 1786 1804 1805 1822 1840 1841 1823 1877 
1858 1876 1859 1895 1894 1913 1912 1948 1949 
1931 1930 1967 1984 1985 1966 2020 2021 2003 
2002 2038 2039 2057 2056 2074 2092 2075 2093 
2111 2129 2128 2110 2146 2147 2165 2164 2183 
2200 2182 2201 2218 2219 2236 2237 2255 2254 
2273 2272 2290 2291 2308 2309 2344 2345 2327 
2326 2380 2363 2362 2381 2725 2745 2744 2724 
2624 2605 2604 2625 1681 1680 1662 1663 1716 
1717 1698 1699 1771 1770 1735 1752 1734 1789 
1807 1806 1788 1825 1842 1824 1843 1879 1860 
1861 1878 1914 1915 1897 1896 1951 1933 1932 
1950 1987 1986 1968 1969 2004 2022 2005 2023 
2041 2058 2040 2059 2094 2077 2076 2095 2113 
2112 2148 2131 2130 2149 2185 2166 2184 2167 
2220 2202 2203 2221 2239 2274 2257 2256 2238 
2275 2293 2310 2311 2292 2346 2347 2328 2329 
2383 2382 2365 2364 2747 2727 2726 2746 2627 
2626 2607 2606 1664 1682 1665 1700 1701 1719 
1718 1736 1754 1772 1753 1808 1791 1809 1790 
1827 1826 1845 1844 1880 1881 1863 1862 1917 
1899 1916 1898 1934 1935 1953 1952 1971 1988 
1970 1989 2025 2024 2007 2008 2006 2042 2061 
2044 2060 2043 2062 2097 2079 2096 2080 2078 
2116 2114 2115 2098 2150 2151 2132 2133 2187 
2168 2186 2169 2205 2204 2222 2223 2259 2258 
2241 2240 2294 2312 2276 2277 2313 2295 2349 
2330 2348 2331 2367 2385 2384 2366 2748 2729 
2749 2728 2629 2608 2609 2628 1683 1684 1666 
1667 1738 1720 1702 1737 1773 1756 1774 1755 
1811 1792 1810 1828 1847 1829 1846 1883 1864 
1882 1865 1901 1919 1918 1920 1900 1954 1938 
1937 1936 1955 1992 1974 1973 1972 1991 1990 
2009 2027 2028 2026 2010 2045 2064 2046 2063 
2082 2081 2118 2100 2099 2117 2134 2153 2135 
2136 2154 2152 2190 2170 2171 2188 2189 2172 
2206 2224 2225 2207 2261 2243 2242 2260 2296 
2278 2279 2297 2350 2314 2333 2332 2368 2386 
2351 2387 2731 2730 2751 2750 2630 2610 2611 
2631 1668 1686 1669 1685 1721 1739 1703 1704 
1722 1740 1776 1775 1757 1758 1813 1793 1812 
1794 1848 1849 1830 1831 1885 1867 1884 1866 
1921 1904 1922 1903 1902 1958 1940 1957 1956 
1939 1994 1993 1976 1975 2011 2030 2012 2029 
2047 2048 2066 2084 2083 2065 2119 2102 2103 
2101 2137 2120 2138 2121 2174 2156 2155 2173 
2208 2226 2191 2209 2244 2263 2245 2262 2298 
2280 2299 2315 2316 2334 2335 2369 2388 2352 
2370 2732 2733 2752 2753 2613 2633 2612 2632 
1706 1671 1670 1687 1705 1741 1723 1724 1742 
1760 1778 1759 1777 1814 1796 1795 1850 1833 
1851 1832 1887 1869 1905 1886 1868 1906 1924 
1923 1941 1942 1959 1978 1995 1977 1960 1996 
1997 2014 2013 2015 2031 2049 2032 2067 2068 
2085 2050 2087 2088 2104 2086 2105 2122 2106 
2123 2158 2140 2139 2157 2175 2210 2193 2192 
2211 2246 2227 2228 2229 2265 2264 2282 2281 
2317 2300 2336 2318 2389 2371 2353 2390 2354 
2735 2754 2755 2734 2615 2614 2635 2634 1689 
1688 1672 1743 1744 1725 1707 1726 1779 1762 
1780 1761 1816 1797 1798 1815 1870 1835 1834 
1852 1888 1872 1871 1853 1907 1889 1926 1908 
1925 1909 1943 1874 1927 1944 1979 1892 1910 
1961 1962 1945 1981 1999 1980 1963 1998 2016 
2017 1982 2034 2033 2051 2052 2070 2069 2053 
2089 2036 2071 2124 2107 2159 2141 2176 2177 
2195 2194 2212 2230 2213 2247 2267 2248 2266 
2283 2301 2337 2319 2284 2372 2355 2373 2391 
2736 2756 2737 2757 2616 2637 2617 2636 1690 
1691 1674 1673 1727 1728 1709 1708 1763 1764 
1745 1746 1781 1799 1782 1817 1800 1854 1783 
1801 1818 1836 1784 1767 1890 1855 1819 1731 
1837 80 1749 1873 1891 1785 40 1856 1820 
100 1803 160 1541 120 1928 1561 1946 140 
1857 1964 1838 1839 2035 2000 1821 1 180 
21 1911 1893 1875 2072 280 2054 2018 1929 
340 2142 2125 2090 2231 2178 2160 2143 2249 
2214 2196 2250 2285 2303 2232 2302 2320 2338 
2392 2356 2759 2739 2758 2738 2567 2565 2566 
2564 2569 2570 2571 2568 2574 2572 2573 2575 
2578 2577 2576 2579 2580 2581 2582 2583 2584 
2585 2587 2586 2589 2588 2590 2591 2594 2593 
2592 2595 2597 2598 2596 2599 2639 2619 2618 
2638 1710 1677 1675 1676 1711 1693 1692 1729 
1480 1695 1694 1765 1747 1420 1730 1500 1400 
1748 1712 1440 1460 1520 1241 1766 1560 1713 
1281 1540 1580 1600 1802 1321 1301 1620 60 
1361 1640 20 1521 1421 1481 1362 1441 0 
1461 1581 1522 1542 1543 1502 1601 1621 1582 
1562 220 1641 240 200 1947 181 300 161 
260 320 2108 141 201 2161 2179 2144 2126 
2197 2198 2268 2215 2233 2357 2251 2374 2339 
2741 2760 2740 2761 2763 2764 2765 2762 2766 
2769 2767 2768 2772 2773 2771 2770 2777 2775 
2774 2776 2779 2778 2780 2781 2783 2784 2785 
2782 2786 2788 2789 2787 2792 2790 2793 2791 
2797 2795 2796 2794 720 800 740 2343 2378 
2361 2289 780 2379 761 860 701 1020 2397 
681 721 880 820 1060 1080 900 762 1100 
920 1140 960 1120 940 1180 1160 861 980 
1000 1200 1220 881 921 1260 1240 1001 1040 
1280 1300 1041 981 1061 1320 1340 1081 1360 
1380 1121 1101 1141 1062 1102 1082 1063 1122 
1181 1161 1201 1142 1162 1221 1202 1182 1163 
1261 1262 1203 1183 1242 1222 1223 1263 1243 
1341 1282 1322 1302 1381 1343 1401 1402 1342 
1382 1501 1383 1363 1442 1422 1482 1523 1462 
1483 1463 1544 1503 1563 1564 1602 1642 1622 
1583 41 61 42 162 121 81 1965 142 
122 102 2162 1983 182 360 2321 2216 2037 
2180 2234 2073 2055 2393 2252 2304 2322 2287 
2109 2375 2305 2323 2340 2358 2270 2163 2376 
2394 2359 2360 2395 2324 2341 2306 2235 2217 
640 2342 2199 680 2377 2253 2396 461 840 
2325 660 700 2271 2307 561 521 541 482 
581 601 523 522 542 621 760 602 582 
622 642 661 583 641 722 662 702 643 
682 781 703 801 742 741 821 763 841 
783 782 842 802 822 803 862 941 901 
823 843 961 882 902 922 903 1002 942 
923 1021 962 963 943 982 1042 1022 983 
1003 1043 1023 1103 1083 1044 1064 1084 1123 
1143 1104 1164 1145 1184 1144 1124 1205 1224 
1204 1185 1283 1225 1245 1264 1244 1284 1303 
1323 1304 1364 1324 1344 1345 1365 1404 1384 
1423 1403 1444 1464 1424 1443 1504 1524 1484 
1545 1565 1603 1584 1623 2 22 101 1643 
82 3 83 23 63 103 143 84 123 
64 104 2001 163 2019 380 400 440 221 
420 2091 2286 460 480 2269 261 222 281 
500 520 341 321 2127 282 540 2145 302 
2288 580 560 342 2181 362 363 441 620 
600 401 421 402 442 481 462 443 501 
483 444 464 463 504 502 503 484 543 
544 562 563 584 564 565 604 624 603 
623 644 663 664 665 683 704 684 723 
685 724 745 744 743 725 764 784 785 
765 824 805 825 804 844 864 845 863 
883 904 884 865 885 905 925 944 924 
945 965 985 964 984 1004 1025 1024 1005 
1046 1045 1066 1065 1086 1106 1085 1105 1125 
1165 1126 1146 1166 1206 1207 1186 1227 1246 
1226 1265 1266 1286 1285 1305 1306 1326 1325 
1346 1366 1367 1405 1386 1385 1425 1426 1445 
1406 1446 1486 1466 1465 1485 1505 1546 1526 
1525 1605 1585 1624 1604 1644 1625 43 5 
62 4 24 1645 44 25 26 45 105 
85 65 124 144 164 145 183 241 203 
202 223 184 204 224 301 242 225 244 
262 243 263 283 264 322 303 304 361 
381 323 364 344 343 324 382 403 383 
422 424 423 404 425 446 445 426 465 
485 486 466 524 506 525 526 505 546 
566 545 606 605 585 586 625 645 626 
646 666 687 686 667 705 706 727 726 
707 746 747 766 767 787 786 807 806 
846 847 826 827 886 867 887 866 947 
906 946 927 926 907 987 966 986 967 
1027 1006 1007 1026 1047 1067 1068 1048 1108 
1088 1107 1087 1127 1128 1147 1148 1167 1168 
1187 1188 1208 1229 1228 1247 1248 1267 1288 
1268 1287 1347 1308 1328 1327 1307 1348 1368 
1387 1388 1407 1408 1427 1428 1468 1487 1467 
1447 1448 1507 1506 1527 1586 1548 1566 1567 
1547 1607 1626 1587 1606 1647 6 1646 1627 
27 46 7 47 67 86 66 87 126 
106 125 165 166 147 127 146 185 187 
186 205 167 227 206 226 207 245 284 
265 246 266 285 286 345 326 306 325 
305 366 384 346 365 386 406 385 405 
447 427 448 428 468 488 487 467 507 
508 527 528 548 567 547 568 588 608 
607 587 648 647 627 628 689 669 688 
668 728 708 729 709 748 769 768 749 
788 809 808 789 829 828 849 848 869 
888 868 889 909 948 949 928 929 908 
989 969 968 988 1009 1029 1028 1008 1049 
1070 1069 1090 1109 1110 1089 1129 1149 1150 
1130 1170 1169 1190 1209 1189 1210 1250 1230 
1249 1289 1270 1269 1290 1310 1309 1329 1330 
1350 1369 1389 1370 1349 1409 1429 1410 1449 
1450 1469 1488 1470 1489 1509 1528 1508 1529 
1568 1549 1550 1569 1608 1589 1588 1609 1649 
1648 1629 1628 8 29 28 9 49 48 
69 68 109 89 107 108 88 148 149 
129 128 169 189 188 168 229 209 208 
228 247 248 268 249 267 287 288 328 
308 327 307 348 347 367 368 388 387 
408 407 429 450 449 451 470 469 489 
490 510 509 530 529 549 569 570 550 
589 610 590 609 649 650 629 630 670 
671 690 691 711 710 731 730 770 771 
750 751 791 811 790 810 831 871 850 
851 830 891 870 890 911 910 931 930 
950 951 990 970 991 971 1010 1030 1011 
1031 1050 1071 1051 1112 1111 1091 1131 1151 
1132 1152 1172 1192 1171 1212 1211 1191 1252 
1232 1231 1251 1291 1292 1272 1271 1331 1312 
1311 1371 1372 1391 1390 1351 1430 1411 1431 
1451 1471 1452 1511 1490 1491 1510 1531 1551 
1570 1530 1571 1611 1610 1591 1590 1650 1651 
1631 1630 30 31 11 10 51 71 50 
70 91 111 90 110 131 130 151 150 
170 191 171 190 231 211 230 210 250 
269 270 251 310 289 290 309 329 330 
350 349 390 370 369 410 430 409 389 
453 473 471 452 472 493 512 491 511 
492 552 532 533 531 553 551 571 592 
573 572 593 591 612 632 611 653 651 
652 673 631 713 693 692 672 732 753 
733 712 752 792 772 793 773 813 832 
833 812 853 872 852 873 913 912 893 
892 953 952 932 933 993 972 973 992 
1033 1012 1013 1032 1053 1072 1073 1052 1113 
1092 1093 1173 1133 1153 1134 1154 1213 1194 
1193 1233 1234 1253 1254 1273 1293 1313 1352 
1333 1332 1353 1393 1373 1392 1432 1412 1413 
1433 1453 1473 1472 1492 1493 1513 1512 1552 
1572 1573 1532 1553 1533 1592 1593 1612 1613 
1653 1632 1633 1652 32 12 33 13 52 
53 73 72 92 93 112 113 133 153 
152 132 172 173 192 193 213 233 232 
212 253 252 272 271 273 313 292 311 
312 291 293 332 352 331 351 373 372 
392 391 371 413 431 432 411 412 455 
454 474 475 495 494 513 514 515 555 
554 534 535 595 575 574 594 615 635 
613 633 634 614 675 674 654 655 694 
715 714 695 754 755 735 734 774 795 
775 794 814 834 835 815 854 855 875 
874 895 915 914 894 954 955 934 935 
994 995 975 974 1034 1035 1015 1014 1054 
1075 1074 1055 1094 1095 1114 1135 1115 1174 
1155 1175 1195 1215 1214 1235 1255 1274 1275 
1315 1295 1294 1314 1355 1334 1354 1335 1374 
1394 1395 1375 1415 1434 1435 1414 1474 1475 
1495 1455 1454 1494 1534 1514 1535 1515 1555 
1574 1575 1554 1594 1615 1595 1614 1635 1634 
1655 1654 14 35 34 15 55 74 75 
54 95 115 114 94 135 134 175 155 
154 174 195 214 194 215 234 255 235 
254 274 275 294 295 335 314 315 334 
333 353 374 375 354 355 393 395 394 
415 434 435 414 433 476 477 497 496 
516 517 537 556 536 557 576 597 596 
577 617 616 636 637 676 657 677 656 
697 717 696 716 737 756 736 757 776 
796 797 777 836 816 837 817 857 876 
856 877 897 917 896 916 937 956 957 
936 976 977 996 997 1017 1016 1037 1036 
1076 1057 1056 1077 1097 1137 1116 1117 1136 
1096 1156 1157 1177 1176 1196 1197 1217 1216 
1236 1256 1257 1277 1237 1297 1276 1296 1317 
1316 1336 1356 1337 1357 1377 1376 1397 1396 
1457 1417 1436 1437 1416 1456 1476 1496 1497 
1477 1536 1517 1516 1537 1576 1556 1557 1577 
1617 1616 1596 1597 1636 1657 1656 1637 17 
16 57 36 37 76 97 77 56 117 
137 116 136 96 157 177 176 156 196 
197 217 216 237 236 257 256 297 296 
276 277 336 317 337 316 357 377 376 
356 416 417 396 397 437 436 457 456 
859 538 518 839 899 578 558 879 598 
919 939 959 618 999 979 658 638 678 
1019 698 1039 718 1059 1079 738 1099 758 
778 1119 1139 818 1159 798 1179 838 1199 
858 878 1219 898 1239 1259 1299 938 1279 
918 1339 1319 978 958 998 1018 1359 1379 
1078 1399 1058 1419 1038 1098 1439 1459 1118 
1479 1499 1158 1138 1178 1539 1559 1198 1519 
1599 1218 1238 1579 1278 1258 1298 1619 1639 
1318 1659 1338 19 1378 1358 79 59 39 
1438 1398 119 1418 99 139 1478 1458 159 
1518 1498 179 199 239 1558 219 1538 259 
1578 1598 279 1638 299 319 1618 1658 18 
339 359 38 58 379 399 78 419 118 
439 98 138 479 459 158 499 519 198 
178 238 539 559 218 258 579 599 278 
619 298 318 639 338 358 679 659 378 
699 398 719 418 759 438 739 779 458 
478 799 819 498 2401 2400 2398 2399 2402 
2405 2403 2404 2409 2407 2408 2406 2410 2412 
2411 2413 2414 2415 2417 2416 2419 2420 2421 
2418 2423 2422 2426 2424 2427 2425 2429 2428 
2431 2430 2434 2433 2435 2432 2436 2439 2437 
2438 2440 2441 2443 2442 2445 2446 2444 2447 
2451 2449 2450 2448 2455 2454 2452 2453 2456 
2458 2457 2459 2463 2461 2460 2462 2464 2466 
2467 2465 2469 2471 2470 2468 2472 2473 2475 
2474 2478 2476 2479 2477 2480 2481 2485 2484 
2483 2482 2489 2486 2488 2487 2493 2492 2490 
2491 2497 2496 2495 2494 2501 2498 2500 2499 
2505 2503 2504 2502 2509 2508 2507 2506 2511 
2512 2513 2510 2516 2514 2515 2517 2520 2519 
2518 2521 2524 2525 2522 2523 2527 2528 2529 
2526 2530 2531 2532 2533 2534 2535 2536 2537 
2538 2539 2540 2541 2543 2542 2544 2545 2546 
2547 2548 2551 2550 2549 2554 2555 2553 2552 
2558 2556 2557 2559 2560 2561 2562 2563 
FIELD FieldData 7
r 3 2798 float
-0.5125 -0.4875 0 -0.5125 -0.4625 0 -0.5375 -0.4875 0 
-0.5375 -0.4625 0 -0.487805 -0.4875 0 -0.487805 -0.4625 0 
-0.463415 -0.4875 0 -0.463415 -0.4625 0 -0.439024 -0.4625 0 
-0.414634 -0.4625 0 -0.439024 -0.4875 0 -0.414634 -0.4875 0 
-0.390244 -0.4625 0 -0.390244 -0.4875 0 -0.365854 -0.4875 0 
-0.365854 -0.4625 0 -0.341463 -0.4625 0 -0.317073 -0.4625 0 
-0.341463 -0.4875 0 -0.317073 -0.4875 0 -0.292683 -0.4875 0 
-0.292683 -0.4625 0 -0.268293 -0.4625 0 -0.268293 -0.4875 0 
-0.219512 -0.4625 0 -0.219512 -0.4875 0 -0.243902 -0.4625 0 
-0.243902 -0.4875 0 -0.170732 -0.4875 0 -0.170732 -0.4625 0 
-0.195122 -0.4875 0 -0.195122 -0.4625 0 -0.121951 -0.4875 0 
-0.121951 -0.4625 0 -0.146341 -0.4875 0 -0.146341 -0.4625 0 
-0.097561 -0.4875 0 -0.0731707 -0.4625 0 -0.097561 -0.4625 0 
-0.0731707 -0.4875 0 -1.86265e-08 -0.4875 0 -0.0487805 -0.4875 0 
-1.86265e-08 -0.4625 0 -0.0487805 -0.4625 0 -0.0243903 -0.4625 0 
-0.0243903 -0.4875 0 0.0243902 -0.4625 0 0.0487805 -0.4875 0 
0.0487805 -0.4625 0 0.0243902 -0.4875 0 0.0731707 -0.4625 0 
0.097561 -0.4875 0 0.097561 -0.4625 0 0.0731707 -0.4875 0 
0.121951 -0.4625 0 0.121951 -0.4875 0 0.146341 -0.4625 0 
0.146341 -0.4875 0 0.170732 -0.4875 0 0.170732 -0.4625 0 
0.195122 -0.4875 0 0.195122 -0.4625 0 0.243902 -0.4625 0 
0.243902 -0.4875 0 0.219512 -0.4625 0 0.219512 -0.4875 0 
0.292683 -0.4625 0 0.268293 -0.4875 0 0.268293 -0.4625 0 
0.292683 -0.4875 0 0.317073 -0.4875 0 0.341463 -0.4625 0 
0.317073 -0.4625 0 0.341463 -0.4875 0 0.365854 -0.4625 0 
0.390244 -0.4875 0 0.390244 -0.4625 0 0.365854 -0.4875 0 
0.414634 -0.4875 0 0.414634 -0.4625 0 0.439024 -0.4875 0 
0.439024 -0.4625 0 0.463415 -0.4875 0 0.463415 -0.4625 0 
0.487805 -0.4875 0 0.487805 -0.4625 0 0.5375 -0.4625 0 
0.5125 -0.4875 0 0.5375 -0.4875 0 0.5125 -0.4625 0 
-0.5125 -0.4375 0 -0.5125 -0.4125 0 -0.5375 -0.4125 0 
-0.5375 -0.4375 0 -0.487825 -0.437868 0 -0.464377 -0.40969 0 
-0.463869 -0.436474 0 -0.487908 -0.413055 0 -0.44076 -0.413007 0 
-0.415549 -0.43698 0 -0.43981 -0.437853 0 -0.417002 -0.410827 0 
-0.352266 -0.409437 0 -0.373614 -0.404721 0 -0.371463 -0.4343 0 
-0.392631 -0.436038 0 -0.394689 -0.408379 0 -0.349814 -0.436971 0 
-0.329766 -0.409885 0 -0.32698 -0.436525 0 -0.304353 -0.436631 0 
-0.306953 -0.409608 0 -0.28172 -0.436642 0 -0.258557 -0.437247 0 
-0.261309 -0.411056 0 -0.284308 -0.409772 0 -0.212766 -0.413615 0 
-0.234293 -0.437982 0 -0.209355 -0.438053 0 -0.237392 -0.413162 0 
-0.18759 -0.414537 0 -0.183928 -0.43834 0 -0.161676 -0.415629 0 
-0.157769 -0.438716 0 -0.106094 -0.437902 0 -0.109803 -0.413978 0 
-0.135543 -0.415129 0 -0.131562 -0.438421 0 -0.0840113 -0.414842 0 
-0.0550254 -0.438044 0 -0.0583952 -0.41433 0 -0.0805605 -0.438383 0 
-0.00400209 -0.438044 0 -0.00659178 -0.41446 0 -0.0325861 -0.41471 0 
-0.0295745 -0.438208 0 0.0215262 -0.438072 0 0.0195593 -0.414674 0 
0.0459544 -0.415215 0 0.0473043 -0.438341 0 0.0730784 -0.438135 0 
0.0984883 -0.438102 0 0.0723672 -0.414811 0 0.098497 -0.414522 0 
0.124297 -0.413838 0 0.149652 -0.413043 0 0.148296 -0.437622 0 
0.123646 -0.437871 0 0.17244 -0.437429 0 0.174479 -0.412482 0 
0.199196 -0.413717 0 0.19686 -0.437969 0 0.224229 -0.413823 0 
0.246704 -0.437737 0 0.221885 -0.438033 0 0.249202 -0.413246 0 
0.27121 -0.437808 0 0.274055 -0.413316 0 0.295715 -0.437719 0 
0.298676 -0.412946 0 0.322822 -0.412456 0 0.320037 -0.437571 0 
0.346776 -0.412492 0 0.344178 -0.43756 0 0.36847 -0.437868 0 
0.370888 -0.413066 0 0.392756 -0.437672 0 0.394738 -0.412222 0 
0.439681 -0.43666 0 0.440632 -0.410025 0 0.417885 -0.411114 0 
0.416552 -0.437209 0 0.487929 -0.438421 0 0.463559 -0.412767 0 
0.463138 -0.437837 0 0.487937 -0.41439 0 0.5125 -0.4125 0 
0.5375 -0.4125 0 0.5375 -0.4375 0 0.5125 -0.4375 0 
-0.5125 -0.3875 0 -0.5375 -0.3625 0 -0.5375 -0.3875 0 
-0.5125 -0.3625 0 -0.465777 -0.353526 0 -0.464916 -0.382113 0 
-0.487946 -0.388101 0 -0.488035 -0.362923 0 -0.418658 -0.384002 0 
-0.420902 -0.356626 0 -0.441816 -0.387833 0 -0.443276 -0.362012 0 
-0.355942 -0.352421 0 -0.354245 -0.381023 0 -0.399344 -0.352186 0 
-0.375742 -0.37571 0 -0.396899 -0.38034 0 -0.333836 -0.356309 0 
-0.310995 -0.356236 0 -0.309197 -0.382827 0 -0.332058 -0.383258 0 
-0.287881 -0.356467 0 -0.263356 -0.384582 0 -0.286344 -0.383016 0 
-0.264807 -0.358008 0 -0.216841 -0.363791 0 -0.239634 -0.387992 0 
-0.2411 -0.362658 0 -0.21531 -0.388849 0 -0.164815 -0.39224 0 
-0.166825 -0.368575 0 -0.192187 -0.366011 0 -0.19044 -0.390424 0 
-0.115308 -0.366834 0 -0.141074 -0.368343 0 -0.138903 -0.391838 0 
-0.113101 -0.390378 0 -0.0633474 -0.367341 0 -0.0612697 -0.390771 0 
-0.087051 -0.391425 0 -0.0892712 -0.368165 0 -0.0352491 -0.391487 0 
-0.00902034 -0.391182 0 -0.0372343 -0.368409 0 -0.0109763 -0.368007 0 
0.0155068 -0.368783 0 0.0441525 -0.392432 0 0.017418 -0.391641 0 
0.0424012 -0.369871 0 0.0976824 -0.391458 0 0.069513 -0.369517 0 
0.070997 -0.391973 0 0.0968146 -0.368977 0 0.12409 -0.367887 0 
0.124227 -0.390486 0 0.176583 -0.388332 0 0.151355 -0.366631 0 
0.150605 -0.389355 0 0.178259 -0.36507 0 0.230634 -0.365751 0 
0.201996 -0.38968 0 0.227279 -0.389587 0 0.204589 -0.366223 0 
0.277462 -0.388921 0 0.252498 -0.38902 0 0.256196 -0.364934 0 
0.280931 -0.364145 0 0.304924 -0.362622 0 0.349426 -0.387182 0 
0.328546 -0.36104 0 0.325845 -0.386951 0 0.301962 -0.387936 0 
0.351751 -0.361433 0 0.375169 -0.362723 0 0.396827 -0.386104 0 
0.398469 -0.359552 0 0.373266 -0.388046 0 0.442107 -0.383037 0 
0.443554 -0.356039 0 0.419609 -0.384613 0 0.420935 -0.357836 0 
0.488386 -0.365404 0 0.488141 -0.390108 0 0.465499 -0.360226 0 
0.464411 -0.387023 0 0.5375 -0.3625 0 0.5125 -0.3625 0 
0.5125 -0.3875 0 0.5375 -0.3875 0 -0.5125 -0.3125 0 
-0.5125 -0.3375 0 -0.5375 -0.3125 0 -0.5375 -0.3375 0 
-0.488353 -0.337204 0 -0.467172 -0.323735 0 -0.488506 -0.310447 0 
-0.445481 -0.335178 0 -0.447013 -0.307146 0 -0.42546 -0.301372 0 
-0.423614 -0.329067 0 -0.401848 -0.324366 0 -0.38003 -0.319726 0 
-0.357754 -0.324231 0 -0.377867 -0.347477 0 -0.312336 -0.329878 0 
-0.336152 -0.302458 0 -0.312819 -0.303811 0 -0.33535 -0.329223 0 
-0.289226 -0.304241 0 -0.288961 -0.330222 0 -0.265647 -0.30543 0 
-0.265671 -0.33153 0 -0.217446 -0.338738 0 -0.216836 -0.313884 0 
-0.241627 -0.312799 0 -0.241844 -0.337509 0 -0.166779 -0.321125 0 
-0.192086 -0.317229 0 -0.167584 -0.344777 0 -0.192801 -0.341515 0 
-0.141861 -0.344769 0 -0.140874 -0.321264 0 -0.114654 -0.319853 0 
-0.115933 -0.343247 0 -0.0885079 -0.321851 0 -0.0637729 -0.344078 0 
-0.0899272 -0.344929 0 -0.0619863 -0.321076 0 -0.00902634 -0.321768 0 
-0.0111418 -0.344836 0 -0.0356335 -0.322633 0 -0.0341756 -0.299989 0 
-0.0375135 -0.345446 0 0.0154074 -0.346069 0 0.0447636 -0.325396 0 
0.019335 -0.301392 0 0.0424011 -0.347517 0 0.01762 -0.323625 0 