# vtk DataFile Version 4.0
vtk output
ASCII
DATASET POLYDATA
FIELD FieldData 4
domain 1 3 string
domain_min:-20|-15
domain_max:20|15
cell_size:0.05

variables 1 2 string
dt:0.000372678
T:0.493063

constants 1 10 string
xsize:2
ysize:1
csize:0.05
dx:0.0238095
h:0.025
rho0:1000
mass:0.566894
g:1|0
c:13.4164
CFL:0.2

functions 1 8 string
time:T=(T+dt)
continuity:rho_dot=((-(rho*sph_D00(v,mass,rho,Wp52220)))+(((0.1*c)*h)*sph_L00(rho,mass,rho,Wp52220)))
irho:rho=(rho+int1((rho_dot,dt))
EOS:p=(((c^2)*(rho-rho0))+10000)
euler:a=if((gid,(0*v),(((-((1/rho)*sph_G11(p,mass,rho,Wp52220)))+(0.01*sph_L00(v,mass,rho,Wp52220)))+g))
vel:v=(v+int1((a,dt))
pos:r=(r+int1((v,dt))
new_dt:dt=(CFL*min((sqrt(((h/fmax(magnitude((a)))),(h/c)))

POINTS 2798 float
-0.5125 -0.4625 0 -0.5375 -0.4875 0 -0.5375 -0.4625 0 
-0.5125 -0.4875 0 -0.487805 -0.4875 0 -0.463415 -0.4625 0 
-0.487805 -0.4625 0 -0.463415 -0.4875 0 -0.439024 -0.4625 0 
-0.414634 -0.4875 0 -0.439024 -0.4875 0 -0.414634 -0.4625 0 
-0.365854 -0.4875 0 -0.390244 -0.4625 0 -0.365854 -0.4625 0 
-0.390244 -0.4875 0 -0.317073 -0.4625 0 -0.341463 -0.4625 0 
-0.317073 -0.4875 0 -0.341463 -0.4875 0 -0.292683 -0.4625 0 
-0.268293 -0.4875 0 -0.268293 -0.4625 0 -0.292683 -0.4875 0 
-0.243902 -0.4625 0 -0.219512 -0.4625 0 -0.243902 -0.4875 0 
-0.219512 -0.4875 0 -0.195122 -0.4875 0 -0.170732 -0.4625 0 
-0.195122 -0.4625 0 -0.170732 -0.4875 0 -0.121951 -0.4875 0 
-0.146341 -0.4625 0 -0.146341 -0.4875 0 -0.121951 -0.4625 0 
-0.097561 -0.4875 0 -0.097561 -0.4625 0 -0.0731707 -0.4875 0 
-0.0731707 -0.4625 0 -1.86265e-08 -0.4625 0 -0.0243903 -0.4875 0 
-0.0243903 -0.4625 0 -0.0487805 -0.4875 0 -0.0487805 -0.4625 0 
-1.86265e-08 -0.4875 0 0.0243902 -0.4625 0 0.0487805 -0.4875 0 
0.0243902 -0.4875 0 0.0487805 -0.4625 0 0.097561 -0.4625 0 
0.097561 -0.4875 0 0.0731707 -0.4875 0 0.0731707 -0.4625 0 
0.121951 -0.4875 0 0.121951 -0.4625 0 0.146341 -0.4625 0 
0.146341 -0.4875 0 0.170732 -0.4625 0 0.170732 -0.4875 0 
0.195122 -0.4625 0 0.195122 -0.4875 0 0.219512 -0.4625 0 
0.243902 -0.4875 0 0.243902 -0.4625 0 0.219512 -0.4875 0 
0.292683 -0.4875 0 0.268293 -0.4875 0 0.292683 -0.4625 0 
0.268293 -0.4625 0 0.317073 -0.4875 0 0.341463 -0.4625 0 
0.317073 -0.4625 0 0.341463 -0.4875 0 0.390244 -0.4875 0 
0.390244 -0.4625 0 0.365854 -0.4625 0 0.365854 -0.4875 0 
0.439024 -0.4625 0 0.439024 -0.4875 0 0.414634 -0.4625 0 
0.414634 -0.4875 0 0.463415 -0.4875 0 0.463415 -0.4625 0 
0.487805 -0.4875 0 0.487805 -0.4625 0 0.5375 -0.4875 0 
0.5125 -0.4625 0 0.5375 -0.4625 0 0.5125 -0.4875 0 
-0.5375 -0.4125 0 -0.5125 -0.4375 0 -0.5125 -0.4125 0 
-0.5375 -0.4375 0 -0.464225 -0.410039 0 -0.48789 -0.412662 0 
-0.487763 -0.437634 0 -0.463757 -0.436588 0 -0.41699 -0.437083 0 
-0.441499 -0.409989 0 -0.418416 -0.411127 0 -0.440565 -0.436679 0 
-0.393188 -0.437048 0 -0.371419 -0.411605 0 -0.394997 -0.411144 0 
-0.369267 -0.437258 0 -0.321551 -0.437152 0 -0.324153 -0.411487 0 
-0.347819 -0.411308 0 -0.345374 -0.437094 0 -0.300126 -0.412333 0 
-0.272883 -0.43749 0 -0.27578 -0.412533 0 -0.251337 -0.412478 0 
-0.297352 -0.437467 0 -0.223933 -0.437598 0 -0.226629 -0.412982 0 
-0.2015 -0.413404 0 -0.248455 -0.437448 0 -0.199138 -0.437696 0 
-0.173944 -0.437965 0 -0.175879 -0.414195 0 -0.148428 -0.438098 0 
-0.124401 -0.413461 0 -0.123279 -0.437682 0 -0.149996 -0.414453 0 
-0.0985724 -0.437633 0 -0.0991124 -0.413274 0 -0.0735249 -0.438067 0 
-0.0735558 -0.41439 0 -0.0479321 -0.438239 0 -0.0225775 -0.43782 0 
-0.0214938 -0.413669 0 -0.047441 -0.414872 0 0.00350349 -0.412564 0 
0.00198868 -0.437456 0 0.0281218 -0.413273 0 0.0264207 -0.437769 0 
0.0530993 -0.413404 0 0.0758383 -0.43767 0 0.0511768 -0.43779 0 
0.0780731 -0.413093 0 0.149721 -0.437806 0 0.127766 -0.413343 0 
0.100411 -0.437768 0 0.102874 -0.41328 0 0.125073 -0.437781 0 
0.177456 -0.413364 0 0.174376 -0.437853 0 0.199045 -0.437861 0 
0.15267 -0.413344 0 0.202166 -0.413364 0 0.226867 -0.413287 0 
0.223668 -0.437835 0 0.248228 -0.437821 0 0.27279 -0.437846 0 
0.251519 -0.413251 0 0.276178 -0.413342 0 0.297439 -0.437937 0 
0.325168 -0.412877 0 0.346236 -0.437591 0 0.349025 -0.412202 0 
0.300822 -0.413422 0 0.322022 -0.437822 0 0.396195 -0.411658 0 
0.394117 -0.437469 0 0.372671 -0.412262 0 0.370237 -0.437625 0 
0.440883 -0.410323 0 0.418822 -0.409328 0 0.417223 -0.436568 0 
0.439881 -0.436901 0 0.463597 -0.437864 0 0.464104 -0.412999 0 
0.488345 -0.413539 0 0.488196 -0.438127 0 0.5375 -0.4375 0 
0.5125 -0.4375 0 0.5125 -0.4125 0 0.5375 -0.4125 0 
-0.5125 -0.3875 0 -0.5375 -0.3875 0 -0.5125 -0.3625 0 
-0.5375 -0.3625 0 -0.464454 -0.383006 0 -0.48794 -0.362368 0 
-0.487925 -0.387535 0 -0.464631 -0.355698 0 -0.442226 -0.355611 0 
-0.419582 -0.35806 0 -0.419188 -0.384736 0 -0.442008 -0.382885 0 
-0.396566 -0.358517 0 -0.396017 -0.384915 0 -0.37329 -0.359496 0 
-0.372647 -0.385632 0 -0.326167 -0.360052 0 -0.302252 -0.361511 0 
-0.349871 -0.359307 0 -0.301593 -0.386976 0 -0.349203 -0.385335 0 
-0.32555 -0.385746 0 -0.252919 -0.38758 0 -0.277378 -0.387464 0 
-0.253534 -0.362825 0 -0.278096 -0.362351 0 -0.202491 -0.389409 0 
-0.227972 -0.388644 0 -0.228312 -0.364681 0 -0.202478 -0.365727 0 
-0.150607 -0.390974 0 -0.176622 -0.390654 0 -0.15032 -0.367572 0 
-0.176425 -0.367284 0 -0.124765 -0.389644 0 -0.124278 -0.366109 0 
-0.0719796 -0.367976 0 -0.0990095 -0.389418 0 -0.0981786 -0.365939 0 
-0.0730715 -0.391047 0 -0.0452334 -0.369323 0 -0.0182465 -0.366657 0 
-0.0201254 -0.389953 0 -0.046606 -0.39192 0 0.030098 -0.388924 0 
0.0325596 -0.364676 0 0.00771347 -0.363442 0 0.00535677 -0.387909 0 
0.0805591 -0.38875 0 0.0833435 -0.364642 0 0.0552654 -0.389293 0 
0.0578026 -0.365426 0 0.130557 -0.389093 0 0.105566 -0.388958 0 
0.133457 -0.364798 0 0.108514 -0.364715 0 0.183214 -0.364369 0 
0.155564 -0.389028 0 0.180404 -0.388872 0 0.158348 -0.364707 0 
0.229736 -0.388782 0 0.20793 -0.364313 0 0.232626 -0.364265 0 
0.205069 -0.388856 0 0.257239 -0.36416 0 0.254411 -0.388747 0 
0.28163 -0.364003 0 0.27901 -0.388809 0 0.305689 -0.363423 0 
0.327371 -0.387477 0 0.303407 -0.388634 0 0.329268 -0.361603 0 
0.374233 -0.386588 0 0.352421 -0.360353 0 0.398789 -0.358903 0 
0.375689 -0.360742 0 0.397552 -0.385488 0 0.350844 -0.386437 0 
0.421002 -0.353747 0 0.442636 -0.355544 0 0.441725 -0.383194 0 
0.419969 -0.381601 0 0.464469 -0.387698 0 0.488368 -0.363676 0 
0.488391 -0.388649 0 0.46472 -0.361793 0 0.5375 -0.3875 0 
0.5125 -0.3875 0 0.5125 -0.3625 0 0.5375 -0.3625 0 
-0.5125 -0.3375 0 -0.5125 -0.3125 0 -0.5375 -0.3375 0 
-0.5375 -0.3125 0 -0.487966 -0.337098 0 -0.488046 -0.311694 0 
-0.465192 -0.300709 0 -0.464836 -0.328284 0 -0.442359 -0.328406 0 
-0.44267 -0.301436 0 -0.419722 -0.331127 0 -0.419766 -0.304177 0 
-0.350096 -0.307566 0 -0.350049 -0.333375 0 -0.373685 -0.307207 0 
-0.396879 -0.305562 0 -0.373547 -0.333328 0 -0.396816 -0.332075 0 
-0.326327 -0.308748 0 -0.326278 -0.334421 0 -0.302541 -0.310389 0 
-0.302431 -0.335979 0 -0.253541 -0.338305 0 -0.278258 -0.337311 0 
-0.253433 -0.313958 0 -0.278307 -0.312418 0 -0.228026 -0.341111 0 
-0.201908 -0.342298 0 -0.227774 -0.317815 0 -0.201534 -0.319 0 
-0.175692 -0.344051 0 -0.175242 -0.320925 0 -0.148937 -0.320976 0 
-0.12332 -0.342791 0 -0.122587 -0.319658 0 -0.149517 -0.344228 0 
-0.0694384 -0.322449 0 -0.0960724 -0.319743 0 -0.0704963 -0.345144 0 
-0.0969639 -0.342743 0 -0.0423519 -0.324837 0 -0.0416743 -0.302709 0 
-0.043534 -0.347002 0 -0.0149862 -0.320961 0 -0.0162808 -0.34368 0 
0.0374196 -0.31659 0 0.0100633 -0.339236 0 0.0116746 -0.315466 0 
0.0352098 -0.340519 0 0.0882749 -0.316526 0 0.0628369 -0.317906 0 
0.086032 -0.340624 0 0.0604814 -0.341669 0 0.136224 -0.340341 0 
0.13857 -0.315861 0 0.113473 -0.316401 0 0.111266 -0.340511 0 
0.160977 -0.340295 0 0.163404 -0.315855 0 0.188297 -0.315514 0 
0.185832 -0.339913 0 0.238018 -0.315178 0 0.210671 -0.339877 0 
0.213203 -0.315501 0 0.235437 -0.339738 0 0.259965 -0.339385 0 
0.26245 -0.314391 0 0.284126 -0.338876 0 0.286313 -0.313376 0 
0.331021 -0.335258 0 0.332441 -0.30849 0 0.309668 -0.31166 0 
0.307855 -0.33777 0 0.399989 -0.331689 0 0.355281 -0.307928 0 
0.378529 -0.30881 0 0.353938 -0.334116 0 0.377193 -0.334848 0 
0.443751 -0.3274 0 0.40096 -0.303793 0 0.422009 -0.326077 0 
0.488314 -0.313663 0 0.465746 -0.30734 0 0.465054 -0.335105 0 
0.488312 -0.338698 0 0.5125 -0.3375 0 0.5375 -0.3375 0 
0.5375 -0.3125 0 0.5125 -0.3125 0 -0.5125 -0.2875 0 
-0.5375 -0.2625 0 -0.5375 -0.2875 0 -0.5125 -0.2625 0 
-0.488136 -0.286064 0 -0.488253 -0.260053 0 -0.465768 -0.272776 0 
-0.419849 -0.251419 0 -0.443161 -0.274858 0 -0.419829 -0.27755 0 
-0.373486 -0.254972 0 -0.396526 -0.252319 0 -0.396802 -0.278948 0 
-0.373672 -0.281079 0 -0.350099 -0.281799 0 -0.326329 -0.257177 0 
-0.302445 -0.259548 0 -0.349968 -0.255991 0 -0.326418 -0.28302 0 
-0.302602 -0.284842 0 -0.278234 -0.287699 0 -0.277757 -0.263176 0 
-0.252677 -0.265576 0 -0.253243 -0.289724 0 -0.227577 -0.294646 0 
-0.200586 -0.27242 0 -0.201306 -0.295687 0 -0.226943 -0.271623 0 
-0.175002 -0.297901 0 -0.172997 -0.252287 0 -0.174201 -0.275054 0 
-0.1485 -0.297908 0 -0.147481 -0.274999 0 -0.146129 -0.252404 0 
-0.121919 -0.296715 0 -0.120724 -0.27388 0 -0.118889 -0.251214 0 
-0.0939467 -0.274013 0 -0.0686838 -0.299747 0 -0.0666331 -0.254375 0 
-0.0952589 -0.296766 0 -0.06724 -0.277093 0 -0.0926602 -0.250778 0 
-0.0132405 -0.253524 0 -0.0402852 -0.280604 0 -0.0396201 -0.258468 0 
-0.0125603 -0.276158 0 -0.0142601 -0.298521 0 0.0390785 -0.292983 0 
0.0130074 -0.292252 0 0.0138311 -0.268876 0 0.0403928 -0.269947 0 
0.0929648 -0.268085 0 0.0649301 -0.294268 0 0.0669317 -0.271062 0 
0.0904995 -0.292259 0 0.140848 -0.291578 0 0.115563 -0.292334 0 
0.143657 -0.267456 0 0.118334 -0.268404 0 0.190902 -0.291143 0 
0.165932 -0.291521 0 0.168946 -0.267442 0 0.194346 -0.266893 0 
0.240762 -0.290486 0 0.219272 -0.266932 0 0.215887 -0.291253 0 
0.243566 -0.26523 0 0.288221 -0.28746 0 0.267076 -0.262865 0 
0.264778 -0.288924 0 0.29024 -0.261144 0 0.311193 -0.285032 0 
0.335664 -0.2549 0 0.312969 -0.257955 0 0.333798 -0.281585 0 
[...]
POINT_DATA 2798
SCALARS id float
LOOKUP_TABLE default
2621 2600 2601 2620 2640 2643 2641 2642 2645 
2646 2644 2647 2650 2649 2651 2648 2655 2653 
2654 2652 2657 2658 2659 2656 2661 2663 2660 
2662 2664 2667 2665 2666 2670 2669 2668 2671 
2672 2673 2674 2675 2681 2678 2679 2676 2677 
2680 2683 2684 2682 2685 2689 2688 2686 2687 
2690 2691 2693 2692 2695 2694 2697 2696 2699 
2700 2701 2698 2704 2702 2705 2703 2706 2709 
2707 2708 2712 2713 2711 2710 2717 2716 2715 
2714 2718 2719 2720 2721 2742 2723 2743 2722 
2603 2622 2623 2602 1679 1661 1660 1678 1714 
1697 1715 1696 1732 1751 1733 1750 1786 1787 
1769 1768 1805 1822 1823 1841 1804 1858 1859 
1877 1840 1876 1894 1895 1912 1931 1930 1913 
1948 1949 1966 1967 1984 2002 2003 1985 2021 
2020 2039 2038 2057 2074 2056 2075 2128 2111 
2092 2093 2110 2147 2146 2164 2129 2165 2183 
2182 2200 2218 2201 2219 2236 2255 2272 2273 
2237 2254 2309 2308 2291 2290 2345 2327 2326 
2344 2362 2363 2381 2380 2744 2724 2725 2745 
2624 2604 2625 2605 1680 1663 1662 1681 1699 
1717 1716 1698 1735 1734 1753 1752 1789 1807 
1771 1806 1770 1788 1842 1824 1843 1825 1878 
1860 1861 1879 1914 1896 1915 1897 1932 1933 
1969 1950 1951 1968 1987 2005 2004 1986 2040 
2041 2023 2022 2076 2077 2058 2059 2112 2094 
2113 2095 2149 2130 2148 2131 2184 2167 2185 
2166 2203 2202 2221 2220 2239 2256 2238 2257 
2292 2275 2311 2293 2310 2274 2329 2347 2346 
2328 2364 2383 2382 2365 2746 2726 2727 2747 
2626 2627 2606 2607 1664 1665 1683 1682 1700 
1701 1718 1719 1773 1772 1755 1737 1754 1736 
1791 1790 1809 1808 1844 1826 1845 1827 1862 
1880 1863 1881 1898 1899 1917 1934 1935 1916 
1971 1953 1970 1952 1989 1990 1988 2007 2006 
2043 2024 2025 2042 2079 2061 2078 2060 2114 
2115 2097 2096 2132 2133 2151 2150 2187 2168 
2169 2186 2204 2205 2222 2223 2258 2259 2241 
2240 2312 2277 2295 2276 2294 2348 2313 2330 
2385 2367 2366 2384 2728 2748 2749 2729 2628 
2609 2608 2629 1666 1667 1684 1721 1702 1720 
1757 1739 1738 1756 1774 1793 1811 1775 1792 
1810 1828 1829 1847 1846 1864 1883 1882 1865 
1900 1902 1901 1918 1919 1920 1936 1937 1938 
1955 1972 1974 1954 1973 1956 2010 1991 1992 
2009 2008 2044 2026 2027 2045 2081 2062 2063 
2080 2116 2098 2117 2099 2152 2134 2135 2153 
2188 2171 2170 2189 2224 2207 2206 2225 2242 
2261 2243 2260 2278 2279 2297 2296 2332 2331 
2349 2314 2350 2368 2386 2387 2750 2730 2731 
2751 2631 2611 2610 2630 1668 1669 1686 1685 
1704 1723 1703 1722 1758 1759 1740 1777 1776 
1813 1812 1794 1795 1848 1849 1830 1831 1868 
1866 1867 1904 1884 1885 1886 1903 1921 1940 
1939 1922 1976 1957 1958 1975 1994 2011 2012 
1993 2029 2047 2046 2048 2028 2065 2083 2064 
2066 2082 2101 2102 2118 2100 2119 2136 2137 
2154 2155 2173 2190 2172 2209 2191 2226 2227 
2208 2262 2244 2245 2263 2298 2281 2280 2315 
2351 2316 2333 2334 2388 2370 2369 2352 2389 
2753 2733 2732 2752 2612 2633 2632 2613 1688 
1671 1670 1687 1724 1706 1705 1741 1761 1742 
1760 1797 1814 1815 1779 1778 1796 1850 1851 
1833 1832 1869 1870 1887 1888 1905 1923 1906 
1941 1942 1924 1959 1977 1978 1996 2014 1997 
1995 2013 2049 2030 2015 2032 2031 2067 2068 
2084 2050 2086 2085 2103 2104 2121 2139 2138 
2120 2175 2156 2157 2174 2210 2211 2193 2192 
2229 2228 2246 2264 2299 2300 2282 2317 2318 
2336 2335 2354 2372 2353 2371 2390 2754 2734 
2755 2735 2634 2615 2614 2635 1672 1673 1690 
1689 1726 1725 1707 1708 1743 1763 1762 1744 
1798 1780 1817 1781 1816 1834 1854 1835 1852 
1872 1871 1853 1889 1890 1907 1908 1926 1943 
1927 1925 1944 1961 1945 1960 1980 1962 1998 
1979 1999 1981 2033 2017 2016 2051 2069 2052 
2034 2087 2070 2088 2105 2141 2123 2106 2140 
2122 2158 2177 2176 2159 2194 2213 2195 2212 
2230 2231 2247 2248 2265 2302 2301 2284 2283 
2266 2338 2337 2319 2391 2373 2355 2737 2736 
2756 2757 2616 2636 2617 2637 1691 1674 1675 
1710 1728 1727 1729 1709 1764 1746 1747 1745 
1782 1783 1765 1799 1800 1767 1818 1801 1784 
1819 1837 1836 1855 1873 1891 1785 1856 1874 
1909 1892 160 1803 1928 1910 1838 1964 1963 
1857 2000 1982 1893 1946 1929 2035 2053 2036 
1911 2018 2089 2054 2071 2072 2125 2107 2124 
2161 2143 2160 2142 2178 2196 2179 2197 2233 
2249 2232 2215 2214 2268 2250 2267 2303 2285 
2304 2339 2321 2320 2286 2356 2392 2393 2374 
2357 2759 2739 2738 2758 2564 2567 2566 2565 
2571 2569 2570 2568 2574 2575 2572 2573 2578 
2579 2576 2577 2582 2581 2580 2583 2585 2587 
2584 2586 2591 2588 2590 2589 2594 2592 2593 
2595 2598 2599 2597 2596 2618 2619 2638 2639 
1677 1676 1693 1692 1500 1711 1695 1694 1712 
1730 1540 1520 1560 1713 1748 1580 1766 1620 
1731 1600 20 1749 0 40 60 1802 1640 
100 80 1521 1541 1522 120 1820 1542 1561 
1601 140 1581 1 21 180 1821 1839 240 
220 1875 200 260 320 300 280 340 161 
162 181 1947 1965 201 2090 2126 2108 2001 
1983 2180 2162 2144 2055 2198 2216 2073 2037 
2269 2251 2234 2252 2287 2270 2305 2394 2322 
2340 2375 2741 2740 2761 2760 2762 2763 2765 
2764 2768 2767 2769 2766 2771 2772 2773 2770 
2775 2776 2774 2777 2780 2779 2778 2781 2782 
2783 2785 2784 2788 2789 2787 2786 2793 2790 
2791 2792 2797 2796 2794 2795 821 920 940 
1080 1100 841 1120 960 980 1000 1140 1160 
1001 1200 941 1040 1180 1041 1220 961 1240 
1061 1280 1260 1081 1101 1300 1121 1320 1102 
1340 1141 1161 1380 1181 1360 1400 1201 1420 
1162 1460 1440 1221 1241 1281 1480 1261 1321 
1262 1301 1282 1361 1322 1302 1341 1342 1421 
1401 1362 1381 1402 1382 1441 1461 1442 1501 
1462 1481 1502 1482 1523 1563 1562 1543 1602 
1582 1641 1621 1622 1642 2 22 41 61 
101 42 121 81 141 82 83 102 182 
122 103 143 142 221 163 380 360 241 
420 400 2019 261 281 440 460 480 500 
2091 301 321 2127 520 2109 2288 2323 2163 
540 2145 2358 2306 2341 2359 2342 2324 2376 
2395 2360 640 2199 2217 2377 680 2235 2253 
700 2396 2271 840 2378 740 2325 2307 2289 
2343 800 761 860 2361 701 721 2379 820 
1020 1060 2397 900 880 783 763 782 802 
861 822 823 803 862 843 881 842 901 
863 882 902 883 921 922 942 981 903 
1002 962 1021 982 1082 1062 1042 1023 1003 
1022 1043 1063 1083 1064 1142 1104 1103 1084 
1122 1144 1182 1143 1124 1123 1183 1163 1164 
1202 1184 1242 1204 1224 1223 1222 1203 1263 
1264 1243 1244 1283 1284 1303 1343 1323 1363 
1384 1383 1364 1403 1443 1444 1424 1422 1423 
1503 1464 1484 1483 1463 1545 1524 1544 1504 
1603 1583 1564 1584 1604 1643 1624 1623 1644 
24 3 4 23 64 63 43 44 62 
84 104 85 123 164 183 124 144 203 
222 184 202 223 242 243 204 263 262 
283 282 303 341 322 302 361 342 381 
560 401 2181 362 580 402 441 620 422 
600 421 461 442 481 462 660 482 521 
501 541 522 561 542 720 581 601 582 
760 622 641 602 621 780 661 681 642 
662 682 722 703 702 741 742 781 801 
762 743 745 764 744 765 805 804 785 
784 824 825 845 844 884 864 885 865 
904 943 923 924 905 965 983 963 964 
944 984 985 1005 1004 1024 1044 1045 1025 
1065 1086 1085 1105 1106 1125 1145 1126 1146 
1165 1186 1166 1185 1206 1205 1225 1246 1245 
1265 1304 1305 1285 1345 1324 1344 1325 1365 
1404 1385 1386 1446 1405 1445 1425 1485 1466 
1465 1486 1526 1525 1505 1546 1565 1566 1585 
1586 1625 1626 1606 1605 6 1646 1645 5 
46 26 45 25 65 105 86 66 146 
106 125 126 145 165 185 186 166 224 
205 225 245 244 265 264 285 304 284 
323 344 343 324 363 364 383 384 382 
424 423 403 404 443 463 464 444 503 
483 502 484 504 524 543 523 544 563 
564 562 584 583 604 603 623 644 624 
643 663 664 684 683 724 704 725 723 
747 767 746 766 787 807 786 806 846 
826 827 847 886 867 887 866 907 906 
925 927 926 966 967 946 945 1006 986 
1007 987 1046 1026 1027 1047 1067 1087 1066 
1127 1107 1128 1147 1167 1168 1148 1187 1226 
1207 1227 1267 1266 1247 1307 1306 1287 1286 
1326 1327 1346 1347 1367 1387 1366 1407 1427 
1426 1406 1467 1487 1447 1488 1527 1506 1507 
1567 1548 1547 1568 1608 1588 1607 1587 8 
1647 1648 1628 1627 7 27 48 28 47 
67 87 68 88 147 108 128 107 127 
167 168 187 188 148 208 207 227 206 
226 247 266 267 246 287 306 286 305 
346 345 326 325 365 386 385 366 405 
425 406 426 446 445 466 486 485 465 
505 525 526 506 545 565 566 546 586 
585 606 605 625 626 646 645 665 686 
685 666 707 727 706 705 726 769 768 
748 749 808 788 809 789 849 848 828 
829 889 888 868 869 909 929 928 908 
948 969 949 947 968 988 989 1009 1008 
1029 1028 1048 1049 1089 1068 1088 1069 1129 
1109 1108 1149 1169 1208 1188 1228 1209 1189 
1229 1248 1269 1268 1249 1289 1288 1308 1309 
1328 1349 1348 1329 1369 1389 1388 1368 1428 
1408 1429 1409 1468 1448 1469 1449 1508 1529 
1528 1509 1489 1569 1570 1550 1549 1590 1589 
1610 1609 1630 1629 1649 49 9 30 29 
89 69 70 90 109 129 150 149 170 
169 209 189 228 190 210 268 269 249 
248 229 307 308 288 309 289 327 347 
328 348 329 368 367 387 388 407 408 
428 427 448 447 468 488 487 467 508 
528 527 507 567 568 548 547 607 588 
608 587 648 647 627 628 668 687 688 
667 728 729 709 708 771 770 750 751 
790 810 791 811 831 851 850 830 871 
891 890 870 930 911 931 910 970 951 
971 950 1010 1011 990 991 1050 1051 1031 
1030 1090 1070 1091 1071 1131 1110 1130 1111 
1151 1171 1170 1150 1211 1231 1210 1190 1191 
1230 1270 1271 1251 1250 1311 1310 1291 1290 
1351 1350 1331 1330 1390 1391 1371 1370 1431 
1410 1411 1430 1450 1451 1470 1471 1491 1531 
1510 1511 1530 1490 1571 1572 1551 1591 1611 
1650 1651 1631 10 31 51 11 50 91 
92 71 110 131 111 130 172 152 171 
151 211 192 191 231 230 251 250 271 
311 310 291 270 290 351 330 331 371 
369 370 350 349 389 390 410 409 449 
450 429 430 489 470 469 490 530 510 
509 529 550 570 549 569 589 610 590 
609 649 630 650 631 629 670 690 689 
669 710 730 711 731 753 773 752 772 
813 793 812 792 853 832 852 833 893 
873 892 872 912 933 932 913 952 972 
953 973 992 1012 1013 993 1052 1053 1033 
1032 1072 1092 1073 1093 1113 1112 1132 1133 
1152 1193 1172 1192 1173 1153 1233 1213 1212 
1232 1253 1252 1273 1272 1312 1293 1313 1292 
1332 1353 1333 1352 1373 1393 1392 1372 1412 
1413 1432 1433 1453 1452 1473 1492 1472 1493 
1512 1532 1513 1533 1552 1573 1553 1612 1613 
1592 1593 1632 1633 1653 1652 13 53 33 
52 32 12 93 72 73 113 112 132 
133 194 173 153 212 213 233 193 232 
252 272 253 273 313 312 292 293 333 
353 332 352 373 372 392 393 432 413 
411 412 433 391 452 473 453 451 431 
493 513 491 471 472 492 532 512 533 
531 511 551 553 572 571 573 552 593 
592 611 591 612 613 653 632 652 651 
633 691 693 692 671 672 712 732 713 
733 774 775 754 755 795 794 815 814 
854 835 834 855 895 874 875 894 915 
914 934 935 955 974 975 954 995 994 
1015 1014 1035 1034 1075 1054 1055 1095 1115 
1074 1094 1155 1154 1134 1135 1114 1174 1194 
1195 1175 1214 1215 1235 1234 1254 1274 1255 
1275 1295 1314 1315 1294 1375 1335 1354 1334 
1355 1415 1394 1414 1395 1374 1434 1454 1455 
1435 1474 1495 1494 1475 1515 1534 1514 1535 
1554 1575 1555 1574 1615 1595 1635 1614 1594 
15 1634 1655 1654 14 54 55 35 34 
75 74 95 94 134 115 114 135 175 
155 154 174 195 235 214 234 215 255 
275 254 274 294 295 314 315 355 335 
334 354 374 394 395 375 414 434 415 
435 474 475 454 455 515 495 494 514 
555 535 554 534 574 575 595 594 614 
635 615 634 654 675 655 674 673 694 
695 735 734 714 715 797 777 776 796 
836 817 816 837 876 856 857 877 897 
916 917 896 936 937 957 956 997 976 
977 996 1037 1017 1036 1016 1057 1056 1077 
1076 1116 1096 1117 1097 1157 1137 1156 1136 
1196 1176 1197 1177 1217 1236 1216 1237 1256 
1277 1276 1257 1297 1316 1317 1337 1336 1296 
1376 1356 1377 1357 1397 1396 1417 1416 1456 
1437 1457 1436 1476 1477 1496 1497 1536 1517 
1516 1537 1556 1557 1597 1577 1576 1596 1637 
1636 1617 1616 1657 16 17 1656 57 56 
36 37 77 76 96 97 117 136 157 
137 116 176 197 177 196 156 216 217 
236 237 277 256 257 276 297 317 316 
296 336 357 356 337 397 377 376 396 
437 416 417 436 457 456 477 476 497 
516 517 496 537 556 557 536 597 596 
577 576 637 636 616 617 677 656 676 
657 697 717 716 696 757 736 756 737 
1039 1019 798 778 818 1079 1059 838 1119 
878 898 858 1099 938 918 1159 1139 1219 
978 1199 958 1179 1018 1239 1259 998 1038 
1299 1279 1058 1098 1339 1078 1319 1138 1118 
1359 1379 1158 1399 1178 1419 1439 1459 1218 
1198 1519 1238 1258 1479 1499 1278 1539 1298 
1559 1318 1338 1599 1358 1579 1639 1378 1619 
1398 1438 1659 19 1418 39 1478 1458 59 
1538 1498 99 79 1518 119 139 159 1558 
1578 1598 1618 199 179 239 219 1658 1638 
18 279 38 259 58 299 78 319 98 
339 118 359 138 379 399 158 178 218 
439 419 198 258 459 479 238 499 298 
519 539 278 318 579 338 559 599 358 
378 418 639 398 619 659 458 679 438 
699 478 719 498 739 759 518 538 799 
779 578 558 819 618 839 598 859 879 
658 638 919 899 678 698 718 939 959 
738 999 979 758 2399 2400 2398 2401 2405 
2403 2404 2402 2407 2408 2406 2409 2412 2411 
2410 2413 2415 2416 2417 2414 2419 2421 2418 
2420 2423 2425 2422 2427 2426 2424 2429 2431 
2430 2428 2432 2433 2434 2435 2438 2439 2436 
2437 2442 2443 2441 2440 2445 2444 2447 2446 
2451 2449 2450 2448 2453 2454 2455 2452 2459 
2458 2456 2457 2463 2461 2460 2462 2464 2466 
2467 2465 2469 2468 2471 2470 2473 2472 2474 
2475 2478 2480 2481 2477 2479 2476 2482 2483 
2484 2485 2486 2489 2487 2488 2493 2492 2490 
2491 2497 2496 2495 2494 2498 2499 2500 2501 
2503 2504 2502 2505 2509 2508 2507 2506 2511 
2512 2513 2510 2517 2515 2514 2516 2521 2519 
2520 2518 2524 2525 2522 2523 2527 2528 2529 
2526 2532 2533 2531 2530 2534 2535 2536 2537 
2538 2539 2542 2540 2543 2541 2544 2545 2546 
2547 2548 2549 2550 2551 2555 2552 2553 2554 
2558 2556 2557 2559 2560 2561 2562 2563 
FIELD FieldData 7
r 3 2798 float
-0.5125 -0.4625 0 -0.5375 -0.4875 0 -0.5375 -0.4625 0 
-0.5125 -0.4875 0 -0.487805 -0.4875 0 -0.463415 -0.4625 0 
-0.487805 -0.4625 0 -0.463415 -0.4875 0 -0.439024 -0.4625 0 
-0.414634 -0.4875 0 -0.439024 -0.4875 0 -0.414634 -0.4625 0 
-0.365854 -0.4875 0 -0.390244 -0.4625 0 -0.365854 -0.4625 0 
-0.390244 -0.4875 0 -0.317073 -0.4625 0 -0.341463 -0.4625 0 
-0.317073 -0.4875 0 -0.341463 -0.4875 0 -0.292683 -0.4625 0 
-0.268293 -0.4875 0 -0.268293 -0.4625 0 -0.292683 -0.4875 0 
-0.243902 -0.4625 0 -0.219512 -0.4625 0 -0.243902 -0.4875 0 
-0.219512 -0.4875 0 -0.195122 -0.4875 0 -0.170732 -0.4625 0 
-0.195122 -0.4625 0 -0.170732 -0.4875 0 -0.121951 -0.4875 0 
-0.146341 -0.4625 0 -0.146341 -0.4875 0 -0.121951 -0.4625 0 
-0.097561 -0.4875 0 -0.097561 -0.4625 0 -0.0731707 -0.4875 0 
-0.0731707 -0.4625 0 -1.86265e-08 -0.4625 0 -0.0243903 -0.4875 0 
-0.0243903 -0.4625 0 -0.0487805 -0.4875 0 -0.0487805 -0.4625 0 
-1.86265e-08 -0.4875 0 0.0243902 -0.4625 0 0.0487805 -0.4875 0 
0.0243902 -0.4875 0 0.0487805 -0.4625 0 0.097561 -0.4625 0 
0.097561 -0.4875 0 0.0731707 -0.4875 0 0.0731707 -0.4625 0 
0.121951 -0.4875 0 0.121951 -0.4625 0 0.146341 -0.4625 0 
0.146341 -0.4875 0 0.170732 -0.4625 0 0.170732 -0.4875 0 
0.195122 -0.4625 0 0.195122 -0.4875 0 0.219512 -0.4625 0 
0.243902 -0.4875 0 0.243902 -0.4625 0 0.219512 -0.4875 0 
0.292683 -0.4875 0 0.268293 -0.4875 0 0.292683 -0.4625 0 
0.268293 -0.4625 0 0.317073 -0.4875 0 0.341463 -0.4625 0 
0.317073 -0.4625 0 0.341463 -0.4875 0 0.390244 -0.4875 0 
0.390244 -0.4625 0 0.365854 -0.4625 0 0.365854 -0.4875 0 
0.439024 -0.4625 0 0.439024 -0.4875 0 0.414634 -0.4625 0 
0.414634 -0.4875 0 0.463415 -0.4875 0 0.463415 -0.4625 0 
0.487805 -0.4875 0 0.487805 -0.4625 0 0.5375 -0.4875 0 
0.5125 -0.4625 0 0.5375 -0.4625 0 0.5125 -0.4875 0 
-0.5375 -0.4125 0 -0.5125 -0.4375 0 -0.5125 -0.4125 0 
-0.5375 -0.4375 0 -0.464225 -0.410039 0 -0.48789 -0.412662 0 
-0.487763 -0.437634 0 -0.463757 -0.436588 0 -0.41699 -0.437083 0 
-0.441499 -0.409989 0 -0.418416 -0.411127 0 -0.440565 -0.436679 0 
-0.393188 -0.437048 0 -0.371419 -0.411605 0 -0.394997 -0.411144 0 
-0.369267 -0.437258 0 -0.321551 -0.437152 0 -0.324153 -0.411487 0 
-0.347819 -0.411308 0 -0.345374 -0.437094 0 -0.300126 -0.412333 0 
-0.272883 -0.43749 0 -0.27578 -0.412533 0 -0.251337 -0.412478 0 
-0.297352 -0.437467 0 -0.223933 -0.437598 0 -0.226629 -0.412982 0 
-0.2015 -0.413404 0 -0.248455 -0.437448 0 -0.199138 -0.437696 0 
-0.173944 -0.437965 0 -0.175879 -0.414195 0 -0.148428 -0.438098 0 
-0.124401 -0.413461 0 -0.123279 -0.437682 0 -0.149996 -0.414453 0 
-0.0985724 -0.437633 0 -0.0991124 -0.413274 0 -0.0735249 -0.438067 0 
-0.0735558 -0.41439 0 -0.0479321 -0.438239 0 -0.0225775 -0.43782 0 
-0.0214938 -0.413669 0 -0.047441 -0.414872 0 0.00350349 -0.412564 0 
0.00198868 -0.437456 0 0.0281218 -0.413273 0 0.0264207 -0.437769 0 
0.0530993 -0.413404 0 0.0758383 -0.43767 0 0.0511768 -0.43779 0 
0.0780731 -0.413093 0 0.149721 -0.437806 0 0.127766 -0.413343 0 
0.100411 -0.437768 0 0.102874 -0.41328 0 0.125073 -0.437781 0 
0.177456 -0.413364 0 0.174376 -0.437853 0 0.199045 -0.437861 0 
0.15267 -0.413344 0 0.202166 -0.413364 0 0.226867 -0.413287 0 
0.223668 -0.437835 0 0.248228 -0.437821 0 0.27279 -0.437846 0 
0.251519 -0.413251 0 0.276178 -0.413342 0 0.297439 -0.437937 0 
0.325168 -0.412877 0 0.346236 -0.437591 0 0.349025 -0.412202 0 
0.300822 -0.413422 0 0.322022 -0.437822 0 0.396195 -0.411658 0 
0.394117 -0.437469 0 0.372671 -0.412262 0 0.370237 -0.437625 0 
0.440883 -0.410323 0 0.418822 -0.409328 0 0.417223 -0.436568 0 
0.439881 -0.436901 0 0.463597 -0.437864 0 0.464104 -0.412999 0 
0.488345 -0.413539 0 0.488196 -0.438127 0 0.5375 -0.4375 0 
0.5125 -0.4375 0 0.5125 -0.4125 0 0.5375 -0.4125 0 
-0.5125 -0.3875 0 -0.5375 -0.3875 0 -0.5125 -0.3625 0 
-0.5375 -0.3625 0 -0.464454 -0.383006 0 -0.48794 -0.362368 0 
-0.487925 -0.387535 0 -0.464631 -0.355698 0 -0.442226 -0.355611 0 
-0.419582 -0.35806 0 -0.419188 -0.384736 0 -0.442008 -0.382885 0 
-0.396566 -0.358517 0 -0.396017 -0.384915 0 -0.37329 -0.359496 0 
-0.372647 -0.385632 0 -0.326167 -0.360052 0 -0.302252 -0.361511 0 
-0.349871 -0.359307 0 -0.301593 -0.386976 0 -0.349203 -0.385335 0 
-0.32555 -0.385746 0 -0.252919 -0.38758 0 -0.277378 -0.387464 0 
-0.253534 -0.362825 0 -0.278096 -0.362351 0 -0.202491 -0.389409 0 
-0.227972 -0.388644 0 -0.228312 -0.364681 0 -0.202478 -0.365727 0 
-0.150607 -0.390974 0 -0.176622 -0.390654 0 -0.15032 -0.367572 0 
-0.176425 -0.367284 0 -0.124765 -0.389644 0 -0.124278 -0.366109 0 
-0.0719796 -0.367976 0 -0.0990095 -0.389418 0 -0.0981786 -0.365939 0 
-0.0730715 -0.391047 0 -0.0452334 -0.369323 0 -0.0182465 -0.366657 0 
-0.0201254 -0.389953 0 -0.046606 -0.39192 0 0.030098 -0.388924 0 
0.0325596 -0.364676 0 0.00771347 -0.363442 0 0.00535677 -0.387909 0 
0.0805591 -0.38875 0 0.0833435 -0.364642 0 0.0552654 -0.389293 0 
0.0578026 -0.365426 0 0.130557 -0.389093 0 0.105566 -0.388958 0 
0.133457 -0.364798 0 0.108514 -0.364715 0 0.183214 -0.364369 0 
0.155564 -0.389028 0 0.180404 -0.388872 0 0.158348 -0.364707 0 
0.229736 -0.388782 0 0.20793 -0.364313 0 0.232626 -0.364265 0 
0.205069 -0.388856 0 0.257239 -0.36416 0 0.254411 -0.388747 0 
0.28163 -0.364003 0 0.27901 -0.388809 0 0.305689 -0.363423 0 
0.327371 -0.387477 0 0.303407 -0.388634 0 0.329268 -0.361603 0 
0.374233 -0.386588 0 0.352421 -0.360353 0 0.398789 -0.358903 0 
0.375689 -0.360742 0 0.397552 -0.385488 0 0.350844 -0.386437 0 
0.421002 -0.353747 0 0.442636 -0.355544 0 0.441725 -0.383194 0 
0.419969 -0.381601 0 0.464469 -0.387698 0 0.488368 -0.363676 0 
0.488391 -0.388649 0 0.46472 -0.361793 0 0.5375 -0.3875 0 
0.5125 -0.3875 0 0.5125 -0.3625 0 0.5375 -0.3625 0 
-0.5125 -0.3375 0 -0.5125 -0.3125 0 -0.5375 -0.3375 0 
-0.5375 -0.3125 0 -0.487966 -0.337098 0 -0.488046 -0.311694 0 
-0.465192 -0.300709 0 -0.464836 -0.328284 0 -0.442359 -0.328406 0 
-0.44267 -0.301436 0 -0.419722 -0.331127 0 -0.419766 -0.304177 0 
-0.350096 -0.307566 0 -0.350049 -0.333375 0 -0.373685 -0.307207 0 
-0.396879 -0.305562 0 -0.373547 -0.333328 0 -0.396816 -0.332075 0 
-0.326327 -0.308748 0 -0.326278 -0.334421 0 -0.302541 -0.310389 0 
-0.302431 -0.335979 0 -0.253541 -0.338305 0 -0.278258 -0.337311 0 
-0.253433 -0.313958 0 -0.278307 -0.312418 0 -0.228026 -0.341111 0 
-0.201908 -0.342298 0 -0.227774 -0.317815 0 -0.201534 -0.319 0 
-0.175692 -0.344051 0 -0.175242 -0.320925 0 -0.148937 -0.320976 0 
-0.12332 -0.342791 0 -0.122587 -0.319658 0 -0.149517 -0.344228 0 
-0.0694384 -0.322449 0 -0.0960724 -0.319743 0 -0.0704963 -0.345144 0 
-0.0969639 -0.342743 0 -0.0423519 -0.324837 0 -0.0416743 -0.302709 0 
-0.043534 -0.347002 0 -0.0149862 -0.320961 0 -0.0162808 -0.34368 0 
0.0374196 -0.31659 0 0.0100633 -0.339236 0 0.0116746 -0.315466 0 