# vtk DataFile Version 4.0
vtk output
ASCII
DATASET POLYDATA
FIELD FieldData 4
domain 1 3 string
domain_min:-20|-15
domain_max:20|15
cell_size:0.05

variables 1 2 string
dt:0.000372678
T:2.09284

constants 1 10 string
xsize:2
ysize:1
csize:0.05
dx:0.0238095
h:0.025
rho0:1000
mass:0.566894
g:1|0
c:13.4164
CFL:0.2

functions 1 8 string
time:T=(T+dt)
continuity:rho_dot=((-(rho*sph_D00(v,mass,rho,Wp52220)))+(((0.1*c)*h)*sph_L00(rho,mass,rho,Wp52220)))
irho:rho=(rho+int1((rho_dot,dt))
EOS:p=(((c^2)*(rho-rho0))+10000)
euler:a=if((gid,(0*v),(((-((1/rho)*sph_G11(p,mass,rho,Wp52220)))+(0.01*sph_L00(v,mass,rho,Wp52220)))+g))
vel:v=(v+int1((a,dt))
pos:r=(r+int1((v,dt))
new_dt:dt=(CFL*min((sqrt(((h/fmax(magnitude((a)))),(h/c)))

POINTS 2798 float
-0.5375 -0.4875 0 -0.5375 -0.4625 0 -0.5125 -0.4875 0 
-0.5125 -0.4625 0 -0.487805 -0.4875 0 -0.463415 -0.4875 0 
-0.463415 -0.4625 0 -0.487805 -0.4625 0 -0.439024 -0.4875 0 
-0.414634 -0.4625 0 -0.414634 -0.4875 0 -0.439024 -0.4625 0 
-0.390244 -0.4625 0 -0.365854 -0.4625 0 -0.365854 -0.4875 0 
-0.390244 -0.4875 0 -0.341463 -0.4625 0 -0.317073 -0.4625 0 
-0.317073 -0.4875 0 -0.341463 -0.4875 0 -0.268293 -0.4875 0 
-0.292683 -0.4625 0 -0.292683 -0.4875 0 -0.268293 -0.4625 0 
-0.243902 -0.4625 0 -0.219512 -0.4625 0 -0.219512 -0.4875 0 
-0.243902 -0.4875 0 -0.170732 -0.4875 0 -0.195122 -0.4875 0 
-0.170732 -0.4625 0 -0.195122 -0.4625 0 -0.121951 -0.4875 0 
-0.121951 -0.4625 0 -0.146341 -0.4625 0 -0.146341 -0.4875 0 
-0.097561 -0.4875 0 -0.097561 -0.4625 0 -0.0731707 -0.4875 0 
-0.0731707 -0.4625 0 -0.0487805 -0.4625 0 -1.86265e-08 -0.4625 0 
-0.0243903 -0.4625 0 -1.86265e-08 -0.4875 0 -0.0487805 -0.4875 0 
-0.0243903 -0.4875 0 0.0487805 -0.4875 0 0.0243902 -0.4625 0 
0.0243902 -0.4875 0 0.0487805 -0.4625 0 0.0731707 -0.4875 0 
0.0731707 -0.4625 0 0.097561 -0.4625 0 0.097561 -0.4875 0 
0.121951 -0.4875 0 0.146341 -0.4875 0 0.121951 -0.4625 0 
0.146341 -0.4625 0 0.195122 -0.4625 0 0.170732 -0.4875 0 
0.195122 -0.4875 0 0.170732 -0.4625 0 0.219512 -0.4625 0 
0.219512 -0.4875 0 0.243902 -0.4875 0 0.243902 -0.4625 0 
0.268293 -0.4625 0 0.292683 -0.4625 0 0.292683 -0.4875 0 
0.268293 -0.4875 0 0.317073 -0.4625 0 0.341463 -0.4625 0 
0.341463 -0.4875 0 0.317073 -0.4875 0 0.390244 -0.4875 0 
0.390244 -0.4625 0 0.365854 -0.4875 0 0.365854 -0.4625 0 
0.439024 -0.4625 0 0.414634 -0.4625 0 0.439024 -0.4875 0 
0.414634 -0.4875 0 0.463415 -0.4625 0 0.463415 -0.4875 0 
0.487805 -0.4875 0 0.487805 -0.4625 0 0.5125 -0.4625 0 
0.5125 -0.4875 0 0.5375 -0.4625 0 0.5375 -0.4875 0 
-0.5125 -0.4125 0 -0.5125 -0.4375 0 -0.5375 -0.4125 0 
-0.5375 -0.4375 0 -0.465135 -0.43805 0 -0.466323 -0.412473 0 
-0.489124 -0.43672 0 -0.488626 -0.409882 0 -0.443539 -0.433368 0 
-0.421285 -0.438566 0 -0.430769 -0.410884 0 -0.40796 -0.41135 0 
-0.398034 -0.436127 0 -0.363537 -0.408561 0 -0.355149 -0.43646 0 
-0.385748 -0.40651 0 -0.376732 -0.434797 0 -0.309321 -0.438594 0 
-0.317555 -0.413042 0 -0.341189 -0.408821 0 -0.33326 -0.436141 0 
-0.289744 -0.430942 0 -0.268935 -0.438431 0 -0.256859 -0.409905 0 
-0.278792 -0.40821 0 -0.234459 -0.408155 0 -0.224602 -0.436674 0 
-0.246501 -0.435257 0 -0.202064 -0.436097 0 -0.212313 -0.409973 0 
-0.155416 -0.435901 0 -0.166282 -0.412844 0 -0.189171 -0.410432 0 
-0.179192 -0.438178 0 -0.104463 -0.411477 0 -0.134011 -0.436241 0 
-0.128083 -0.412608 0 -0.109999 -0.43846 0 -0.147542 -0.401252 0 
-0.0578235 -0.413697 0 -0.0799099 -0.408668 0 -0.0652996 -0.438914 0 
-0.0877194 -0.434699 0 -0.0267092 -0.412029 0 -0.04173 -0.435391 0 
-0.0189434 -0.437938 0 -0.00409112 -0.410325 0 0.0197554 -0.411553 0 
0.0269857 -0.437408 0 0.00388477 -0.436441 0 0.043934 -0.412524 0 
0.0675336 -0.411422 0 0.0971837 -0.437066 0 0.0742088 -0.437049 0 
0.0912633 -0.411031 0 0.0508009 -0.437659 0 0.120397 -0.437211 0 
0.143703 -0.437167 0 0.115029 -0.411671 0 0.139247 -0.411641 0 
0.167361 -0.437599 0 0.19089 -0.436633 0 0.188377 -0.412575 0 
0.163411 -0.412311 0 0.239002 -0.436504 0 0.239278 -0.40837 0 
0.216681 -0.415384 0 0.214801 -0.438563 0 0.286995 -0.43879 0 
0.262351 -0.414306 0 0.262148 -0.437477 0 0.291963 -0.417112 0 
0.339822 -0.438207 0 0.318979 -0.417177 0 0.337137 -0.403139 0 
0.314148 -0.43922 0 0.36814 -0.440022 0 0.379683 -0.414655 0 
0.393474 -0.437563 0 0.354894 -0.419559 0 0.445332 -0.406669 0 
0.419836 -0.440811 0 0.405597 -0.414675 0 0.429424 -0.421088 0 
0.449959 -0.44057 0 0.485418 -0.440728 0 0.489723 -0.416797 0 
0.465139 -0.425665 0 0.5375 -0.4125 0 0.5125 -0.4375 0 
0.5375 -0.4375 0 0.5125 -0.4125 0 -0.5125 -0.3625 0 
-0.5125 -0.3875 0 -0.5375 -0.3875 0 -0.5375 -0.3625 0 
-0.467345 -0.381454 0 -0.456525 -0.361003 0 -0.488563 -0.357698 0 
-0.488885 -0.38388 0 -0.4145 -0.385928 0 -0.435271 -0.376196 0 
-0.410536 -0.359952 0 -0.448695 -0.397832 0 -0.390676 -0.38156 0 
-0.363634 -0.383195 0 -0.379513 -0.361203 0 -0.346526 -0.365686 0 
-0.321231 -0.354692 0 -0.334564 -0.386245 0 -0.312981 -0.37819 0 
-0.300544 -0.399658 0 -0.293936 -0.358993 0 -0.262684 -0.357067 0 
-0.283148 -0.37921 0 -0.260607 -0.382973 0 -0.238801 -0.354678 0 
-0.214988 -0.38307 0 -0.215199 -0.357131 0 -0.238034 -0.381142 0 
-0.191052 -0.35953 0 -0.169144 -0.384065 0 -0.191482 -0.384646 0 
-0.154542 -0.367022 0 -0.133884 -0.380881 0 -0.111615 -0.387478 0 
-0.129633 -0.35479 0 -0.106993 -0.362394 0 -0.062903 -0.382729 0 
-0.0869025 -0.385045 0 -0.081326 -0.360651 0 -0.0506552 -0.362314 0 
-0.00843329 -0.385622 0 -0.0284895 -0.376013 0 -0.0422619 -0.395591 0 
-0.0107588 -0.356139 0 0.0399894 -0.387912 0 0.0154991 -0.385776 0 
0.0355018 -0.362942 0 0.0111061 -0.360705 0 0.0945512 -0.364665 0 
0.0646791 -0.38576 0 0.0882785 -0.385993 0 0.0602997 -0.362776 0 
0.11452 -0.387516 0 0.141267 -0.3879 0 0.123236 -0.366103 0 
0.174789 -0.354441 0 0.169643 -0.389941 0 0.187239 -0.374725 0 
0.154193 -0.3687 0 0.227505 -0.351205 0 0.225761 -0.386645 0 
0.202384 -0.394136 0 0.209436 -0.365124 0 0.2436 -0.371885 0 
0.296949 -0.372827 0 0.282281 -0.396053 0 0.259381 -0.388424 0 
0.273838 -0.366863 0 0.308898 -0.393636 0 0.328144 -0.378696 0 
0.322499 -0.356138 0 0.350088 -0.369234 0 0.358795 -0.392181 0 
0.382803 -0.390241 0 0.377369 -0.36751 0 0.406709 -0.391053 0 
0.430202 -0.363752 0 0.429474 -0.388845 0 0.4059 -0.366115 0 
0.467879 -0.398538 0 0.45404 -0.37802 0 0.488965 -0.390182 0 
0.462082 -0.358243 0 0.484939 -0.368161 0 0.5125 -0.3875 0 
0.5125 -0.3625 0 0.5375 -0.3625 0 0.5375 -0.3875 0 
-0.5375 -0.3375 0 -0.5375 -0.3125 0 -0.5125 -0.3375 0 
-0.5125 -0.3125 0 -0.469612 -0.342141 0 -0.45118 -0.300382 0 
-0.490822 -0.328423 0 -0.471506 -0.313671 0 -0.434025 -0.349085 0 
-0.448414 -0.328084 0 -0.417192 -0.330942 0 -0.427735 -0.310576 0 
-0.360716 -0.345946 0 -0.371666 -0.325392 0 -0.393788 -0.341781 0 
-0.395375 -0.315589 0 -0.371909 -0.30074 0 -0.302706 -0.33478 0 
-0.347205 -0.315276 0 -0.319384 -0.318191 0 -0.336676 -0.337395 0 
-0.252196 -0.330025 0 -0.291286 -0.311029 0 -0.277587 -0.338769 0 
-0.268919 -0.312252 0 -0.237105 -0.305719 0 -0.204664 -0.33357 0 
-0.228026 -0.329323 0 -0.210384 -0.306718 0 -0.171754 -0.349199 0 
-0.18758 -0.300922 0 -0.160696 -0.317862 0 -0.183295 -0.326201 0 
-0.148472 -0.33901 0 -0.137672 -0.310494 0 -0.106236 -0.310476 0 
-0.122516 -0.329853 0 -0.067221 -0.342569 0 -0.0822064 -0.322429 0 
-0.0634997 -0.306396 0 -0.0992368 -0.339123 0 -0.0187654 -0.325439 0 
-0.0355141 -0.30586 0 -0.0489038 -0.326982 0 -0.0328132 -0.346233 0 
0.0112965 -0.306872 0 0.0487075 -0.338102 0 0.00305134 -0.331772 0 
0.0342878 -0.312651 0 0.0254602 -0.337084 0 0.0685659 -0.324526 0 
0.0943572 -0.326888 0 0.0869753 -0.303011 0 0.0569274 -0.305241 0 
0.0779614 -0.348432 0 0.140588 -0.348536 0 0.113944 -0.309446 0 
0.128763 -0.327404 0 0.109912 -0.344587 0 0.172551 -0.300627 0 
0.162146 -0.334744 0 0.150884 -0.314452 0 0.196589 -0.342394 0 
0.184265 -0.321724 0 0.244225 -0.326244 0 0.234292 -0.304293 0 
0.218215 -0.328992 0 0.206943 -0.308857 0 0.27664 -0.341025 0 
0.29702 -0.32327 0 0.267467 -0.318212 0 0.253498 -0.349011 0 
0.288035 -0.301742 0 0.300685 -0.348406 0 0.337577 -0.338321 0 
0.319513 -0.323712 0 0.333845 -0.302324 0 0.392114 -0.31294 0 
0.374945 -0.328469 0 0.391113 -0.347543 0 0.352521 -0.317149 0 
0.359648 -0.347664 0 0.446956 -0.31593 0 0.422515 -0.315561 0 
0.409673 -0.334819 0 0.43309 -0.342832 0 0.49038 -0.345462 0 
0.490136 -0.306129 0 0.464696 -0.301279 0 0.480082 -0.326034 0 
0.457776 -0.336483 0 0.5125 -0.3375 0 0.5375 -0.3375 0 
0.5375 -0.3125 0 0.5125 -0.3125 0 -0.5375 -0.2875 0 
-0.5375 -0.2625 0 -0.5125 -0.2625 0 -0.5125 -0.2875 0 
-0.468462 -0.28243 0 -0.489711 -0.297196 0 -0.469626 -0.253387 0 
-0.489699 -0.268267 0 -0.42983 -0.284951 0 -0.429399 -0.251417 0 
-0.404972 -0.294936 0 -0.411405 -0.268402 0 -0.447774 -0.268606 0 
-0.372005 -0.250674 0 -0.384886 -0.280199 0 -0.39428 -0.253884 0 
-0.360817 -0.273676 0 -0.341698 -0.258097 0 -0.302007 -0.263075 0 
-0.318876 -0.295952 0 -0.324376 -0.273356 0 -0.345386 -0.292083 0 
-0.29434 -0.287704 0 -0.256419 -0.292051 0 -0.261088 -0.256468 0 
-0.274499 -0.277185 0 -0.221287 -0.284649 0 -0.210606 -0.260543 0 
-0.241081 -0.271489 0 -0.172113 -0.270449 0 -0.162893 -0.2935 0 
-0.194573 -0.277427 0 -0.146293 -0.258074 0 -0.101884 -0.275097 0 
-0.121666 -0.291341 0 -0.142391 -0.2808 0 -0.120075 -0.260701 0 
-0.0650745 -0.281242 0 -0.0878113 -0.294481 0 -0.0794404 -0.262382 0 
-0.0541198 -0.254948 0 -0.0164558 -0.27667 0 -0.000329361 -0.255242 0 
-0.0106052 -0.299866 0 -0.0316896 -0.257091 0 -0.0416126 -0.283028 0 
0.0269759 -0.257548 0 0.0313867 -0.285793 0 0.00971014 -0.278613 0 
0.0802365 -0.282606 0 0.0777727 -0.257728 0 0.0555566 -0.281572 0 
0.0504655 -0.258937 0 0.102772 -0.268147 0 0.113209 -0.286839 0 
0.139341 -0.272877 0 0.125611 -0.254585 0 0.13897 -0.295755 0 
0.19532 -0.266511 0 0.174371 -0.257192 0 0.194978 -0.289066 0 
0.153028 -0.25006 0 0.164254 -0.279995 0 0.22269 -0.284225 0 
0.243109 -0.25164 0 0.247225 -0.275271 0 0.218905 -0.260659 0 
0.258575 -0.295732 0 0.296001 -0.250577 0 0.279673 -0.279672 0 
[...]
POINT_DATA 2798
SCALARS id float
LOOKUP_TABLE default
2600 2601 2620 2621 2640 2642 2643 2641 2644 
2647 2646 2645 2649 2651 2650 2648 2653 2655 
2654 2652 2658 2657 2656 2659 2661 2663 2662 
2660 2666 2664 2667 2665 2670 2671 2669 2668 
2672 2673 2674 2675 2677 2681 2679 2680 2676 
2678 2684 2683 2682 2685 2686 2687 2689 2688 
2690 2692 2691 2693 2697 2694 2696 2695 2699 
2698 2700 2701 2703 2705 2704 2702 2707 2709 
2708 2706 2712 2713 2710 2711 2717 2715 2716 
2714 2719 2718 2720 2721 2723 2722 2743 2742 
2623 2622 2603 2602 1678 1696 1660 1697 1714 
1732 1768 1823 1786 1913 1858 1840 1804 1894 
1967 1949 1876 1912 1930 2093 1966 2111 1984 
1948 2020 2129 2056 2165 2147 2038 2201 2074 
2183 2092 2184 2237 2219 2128 2110 2218 2146 
2164 2291 2310 2200 2182 2329 2328 2272 2254 
2330 2236 2290 2309 2331 2347 2308 2327 2349 
2350 2346 2366 2365 2326 2345 2364 2348 2368 
2362 2363 2370 2344 2380 2371 2386 2383 2389 
2382 2390 2367 2381 2384 2387 2385 2745 2724 
2744 2725 2625 2624 2604 2605 1715 1787 1679 
1661 1841 1805 1842 1750 1822 1877 1859 1914 
1950 1931 1986 1985 2004 2002 2003 2057 2075 
2130 2131 2112 2167 2166 2148 2203 2202 2220 
2221 2239 2256 2238 2257 2275 2273 2274 2255 
2292 2313 2311 2315 2312 2317 2332 2316 2300 
2333 2334 2336 2248 2352 2353 2335 2195 2354 
2351 2318 2284 1620 2337 2369 1461 2372 340 
1122 0 2267 2090 1101 2231 1341 2391 2213 
2388 280 2355 2373 2301 2726 2727 2747 2746 
2606 2607 2626 2627 1733 1769 1662 1716 1824 
1806 1843 1825 1895 1896 1860 1861 1878 2022 
1933 2005 1932 2039 2040 2021 2058 2076 2149 
2094 2113 2185 2150 2204 2186 2222 2223 2241 
2240 2276 2259 2277 2258 2295 2278 2294 2293 
2298 2282 2296 2299 2314 2247 2125 2212 2265 
2283 2266 2018 21 2230 120 2142 1441 1875 
1362 100 1561 1481 1521 20 1541 1161 60 
1928 1460 1201 1181 1261 1520 1141 1420 1540 
1281 1121 1440 1400 1221 320 1081 1001 1321 
1183 2728 2748 2749 2729 2608 2609 2629 2628 
1734 1698 1752 1680 1788 1807 1862 1844 1751 
1897 1879 1880 1915 1951 2024 2023 1987 1968 
2041 2077 2078 2059 2095 2114 2096 2169 2168 
2132 2205 2208 2224 2206 2207 2260 2242 2225 
2243 2280 2262 2297 2261 2279 2263 2281 2246 
2229 2054 2264 2194 2072 1929 1581 1893 1522 
1946 1911 140 1821 1838 1361 1 40 180 
1301 1963 1600 1731 1580 1910 1820 160 1241 
1802 1749 1040 1766 1713 1784 1729 1300 1873 
1767 1712 2730 2731 2750 2751 2610 2631 2611 
2630 1717 1663 1789 1735 1770 1881 1826 1898 
1916 1934 1935 1970 1953 1969 1952 2006 2042 
2062 2079 2061 2060 2043 2081 2097 2098 2080 
2099 2116 2133 2115 2151 2187 2190 2188 2191 
2173 2156 2189 2244 2209 2140 2174 2226 2228 
2245 2227 2177 2193 2211 2175 2159 2053 2124 
2036 2035 2070 2176 2107 1803 1982 1857 1839 
1981 1998 1964 1926 1979 1892 462 1942 1837 
900 1120 762 542 1560 1909 1853 1675 1818 
1819 1891 2732 2753 2752 2733 2612 2633 2613 
2632 1790 1771 1699 1753 1900 1863 1917 1899 
1971 1972 1954 1989 1988 2007 2025 2027 2026 
2044 2045 2028 2010 2063 2064 2029 2047 2046 
2117 2135 2082 2134 2170 2172 2155 2136 2100 
2152 2171 2153 2101 2139 2192 2154 2123 2157 
2210 2089 2158 2052 2071 2141 2121 2119 2068 
2087 2122 2103 2106 2105 2085 2050 2033 2017 
2000 2088 1693 2016 2034 1980 1874 1856 1908 
1785 1997 1962 1180 820 2145 1783 1080 2325 
1220 2754 2735 2755 2734 2635 2615 2614 2634 
1718 1681 1808 1845 1864 1901 1882 1883 1919 
1936 1937 1918 1955 2008 1973 1990 1938 2009 
1991 1956 1974 1957 1924 1992 1977 1975 1959 
1905 1958 1993 2030 1817 1835 1941 1852 2011 
2065 1816 2083 2012 2120 2048 1711 1994 2138 
1925 2137 1798 1780 1705 1689 1851 1960 1723 
2066 2118 2104 1797 2014 2013 1708 2084 2015 
1944 2049 1100 2102 1978 2051 2086 2069 1890 
2032 80 1999 1961 1709 2288 1676 1945 1889 
1927 2757 2736 2756 2737 2636 2637 2617 2616 
1772 1700 1736 1846 1809 1719 1827 1902 1865 
1884 1866 1920 1829 1885 1903 220 1868 1939 
1792 1738 1867 1848 1921 1976 1940 1811 1831 
1849 1904 1923 1922 1830 1887 1813 1739 1870 
1871 1794 1869 1722 1781 1758 1834 1886 1832 
1995 1775 1850 2374 1727 1776 2250 1795 1670 
1777 2215 1740 1742 1779 1673 2320 1815 2234 
2357 1906 1745 1283 1799 2303 1746 2031 1762 
1674 1814 2067 1888 1996 1140 2306 1695 2377 
1710 2739 2738 2758 2759 2567 2564 2565 2566 
2571 2569 2568 2570 2575 2573 2572 2574 2578 
2576 2577 2579 2582 2581 2580 2583 2585 2586 
2584 2587 2591 2590 2588 2589 2595 2594 2592 
2593 2599 2598 2597 2596 2638 2618 2639 2619 
1665 1682 1664 1701 1737 1683 1320 1754 1720 
1828 1666 941 1810 1102 1847 1791 1773 1692 
1062 1755 981 1702 1601 1684 2285 1401 1667 
2160 1669 1703 1262 1677 1021 2319 1222 861 
1793 1812 260 2338 1685 1721 1774 2181 980 
2392 1741 124 1757 920 264 2356 1756 901 
1142 1704 1686 240 1282 404 1061 2143 843 
783 742 2232 681 2251 343 940 1760 2214 
2361 1543 1691 2323 1671 1778 1726 1796 2376 
2198 2397 2761 2760 2741 2740 2762 2763 2765 
2764 2769 2767 2768 2766 2772 2773 2770 2771 
2776 2777 2774 2775 2778 2779 2780 2781 2784 
2783 2782 2785 2788 2789 2787 2786 2792 2790 
2791 2793 2794 2795 2796 2797 163 2270 2339 
2037 2304 1480 2360 2307 2378 1855 2180 2055 
1690 520 2321 1422 780 1500 341 162 1836 
1730 1263 1765 680 1801 2289 421 1380 720 
1800 1200 2217 2342 1747 1706 460 1041 1242 
2091 223 802 482 1260 881 1748 822 480 
1907 1872 921 862 1782 1764 1385 263 561 
1854 420 860 541 22 2269 1643 1668 363 
281 560 1202 1694 620 481 1340 540 701 
101 362 1240 402 2178 682 381 641 423 
501 302 521 123 600 321 1585 102 721 
241 1525 2249 262 442 401 1000 463 361 
621 801 403 722 224 382 1182 760 2126 
703 883 1502 1523 1947 2359 903 1744 1943 
1759 1725 1833 1043 1728 2252 2375 800 1184 
1022 1763 961 1707 2343 2396 2271 1582 2394 
601 1303 1743 2179 640 41 1688 461 1761 
1044 1672 1542 2287 2199 2019 1020 181 983 
761 2341 806 884 2161 2235 963 1042 902 
1185 2253 982 1083 625 2163 623 844 2393 
764 1144 840 2395 2196 786 2108 1060 2233 
300 1105 1483 1544 904 766 984 1145 1004 
2197 1124 2109 845 1045 1302 1564 1983 200 
1143 1064 964 1383 1602 1264 141 1641 660 
1106 1363 1224 360 81 143 42 2324 61 
2268 1344 261 2340 83 1563 1404 1443 1066 
500 1364 182 1424 1403 3 1384 2127 1423 
221 1360 1280 1345 104 2379 1160 2322 700 
2286 43 2001 422 121 1604 441 122 1605 
380 1965 4 84 1346 1603 103 1325 1286 
1623 62 1565 1485 740 1505 105 1504 144 
1425 282 6 242 85 301 283 5 323 
222 962 383 304 1342 661 184 781 960 
1023 1322 1402 1381 1687 723 582 804 1621 
922 1421 2302 741 1724 841 2358 1003 1243 
803 1203 823 2216 923 1082 622 1162 201 
1123 1223 744 763 643 366 503 2305 1382 
1204 642 161 1063 385 326 664 1103 864 
544 943 684 863 464 1640 523 663 743 
1163 603 825 704 882 665 566 604 842 
584 605 724 546 705 626 526 506 785 
784 1024 646 805 745 725 765 687 746 
924 925 787 905 1482 1501 1104 985 1086 
1065 1025 1463 1562 1164 1442 945 1225 2162 
1125 907 1244 906 1087 868 986 1085 1343 
1046 1503 1186 1366 1462 1006 1323 1304 967 
987 23 1365 1265 1227 1067 63 1207 1524 
400 440 1644 1642 82 1187 1622 1128 2144 
1266 1324 1305 2 142 1545 1584 1406 1405 
1583 1465 44 1444 1426 1466 580 1645 1484 
1624 25 26 24 27 45 880 1547 782 
203 522 244 1567 364 324 245 344 342 
165 243 284 305 322 86 602 325 942 
583 225 285 821 563 702 147 1002 662 
444 483 581 502 683 543 286 405 562 
384 265 246 424 148 386 306 227 287 
208 346 228 209 307 229 247 624 484 
824 327 504 565 644 485 564 347 645 
524 288 585 446 505 425 426 545 486 
465 525 487 466 685 547 586 527 507 
885 606 706 686 666 826 865 627 866 
886 1084 944 807 867 887 767 788 668 
727 827 965 848 847 689 728 748 768 
849 966 926 1165 888 1047 1005 1126 946 
1205 947 908 948 1026 1007 928 909 890 
1088 927 1226 1206 968 1284 1027 1285 1245 
2073 1127 1166 1246 1069 1109 1167 1147 1464 
1228 1267 1208 1148 1188 1209 1306 1387 1247 
1367 1347 1229 1486 1445 1446 1368 1546 1625 
1407 64 1427 1586 1428 1487 1506 1468 183 
1448 1566 1527 204 1526 443 46 1647 65 
66 166 202 1627 186 303 47 205 164 
7 146 67 185 365 126 266 206 125 
345 226 187 48 49 88 127 107 207 
29 68 189 69 89 108 168 128 129 
149 188 267 170 248 169 268 210 249 
190 269 406 289 328 308 250 309 329 
445 348 407 367 387 368 388 447 427 
467 408 468 448 488 449 607 469 567 
587 568 508 647 726 549 588 747 608 
569 667 846 707 628 590 648 589 688 
708 649 629 669 670 709 729 808 869 
690 828 749 829 769 870 850 889 809 
789 830 891 851 871 988 910 1107 892 
1146 949 1068 1008 1108 989 1089 1028 1049 
1009 1029 1090 1048 1030 1110 1070 1129 1050 
1091 1130 1131 1168 1111 1149 1386 1326 1248 
1307 1189 1287 1268 1327 1288 1467 1328 1308 
1348 1408 1388 1447 1329 1349 1429 1488 1409 
1369 1626 1507 1606 1646 1548 1587 1508 1528 
1607 1509 1568 1588 1529 1549 1608 1628 1569 
87 8 1648 1589 1649 28 106 145 167 
1611 9 1631 1630 10 30 1650 70 50 
51 31 11 91 109 130 71 90 150 
131 110 111 133 171 132 152 151 191 
172 230 211 270 232 231 290 271 310 
251 369 389 330 291 349 350 409 390 
370 428 429 410 430 489 470 450 548 
491 509 528 490 510 550 529 511 551 
530 570 571 609 591 610 611 631 630 
651 650 671 691 672 731 730 710 711 
771 770 751 750 790 791 810 811 831 
872 929 852 911 912 930 931 970 950 
969 1010 951 991 990 1011 1031 1032 992 
1012 1072 1092 1071 1052 1051 1112 1150 1132 
1113 1093 1210 1169 1170 1151 1190 1249 1230 
1211 1269 1270 1290 1289 1250 1309 1330 1291 
1310 1311 1351 1331 1370 1350 1449 1389 1469 
1410 1430 1489 1450 1490 1470 1471 1510 1511 
1491 1530 1550 1570 1609 1531 1629 1591 1590 
1610 1571 1612 1593 1613 1632 1652 1651 1633 
1653 32 33 13 12 52 53 72 73 
93 92 134 112 113 155 174 153 175 
154 194 214 193 173 192 212 213 233 
234 272 273 252 253 293 311 292 312 
352 351 331 332 392 372 371 391 411 
412 431 432 451 452 471 473 472 492 
512 493 513 531 532 553 552 572 573 
593 592 612 613 652 653 632 633 693 
673 692 733 712 713 732 753 752 773 
772 813 812 792 793 833 853 854 832 
873 894 893 874 914 913 933 932 953 
973 972 971 952 1033 1034 993 1013 1053 
1054 1074 1073 1115 1114 1133 1094 1171 1153 
1172 1152 1134 1212 1191 1192 1233 1231 1251 
1232 1252 1272 1292 1271 1293 1313 1312 1333 
1332 1352 1371 1372 1390 1411 1391 1412 1431 
1452 1451 1432 1472 1493 1473 1492 1552 1551 
1532 1513 1512 1573 1592 1572 1614 1655 1635 
1594 1634 1654 35 15 14 55 75 34 
115 95 94 74 54 156 135 114 215 
176 195 276 196 296 235 295 255 275 
254 315 314 294 354 274 375 374 333 
395 313 353 415 373 414 394 435 434 
455 393 413 454 475 433 453 515 474 
495 534 494 514 555 575 554 595 533 
574 594 635 615 654 614 655 634 675 
695 694 674 715 755 714 734 735 775 
754 795 815 774 896 814 835 794 834 
935 855 916 875 955 975 895 915 995 
934 954 1015 1055 1075 974 994 1035 1216 
1014 1095 1136 1155 1195 1135 1175 1214 1154 
1194 1174 1255 1173 1235 1193 1213 1275 1254 
1234 1315 1253 1335 1273 1274 1314 1375 1294 
1355 1395 1354 1394 1334 1374 1373 1393 1353 
1413 1434 1392 1414 1433 1495 1453 1454 1475 
1535 1515 1494 1474 1514 1533 1575 1555 1534 
1553 1615 1574 1595 1554 357 397 76 96 
437 417 116 136 257 376 216 457 256 
477 497 236 336 517 537 377 577 557 
356 316 597 355 335 617 637 657 396 
334 436 697 677 416 717 456 476 737 
777 516 496 757 536 797 535 817 576 
556 857 837 596 897 616 877 636 917 
656 937 696 957 977 676 716 1017 736 
997 1037 776 756 1057 796 1097 816 1117 
1077 836 876 1137 1177 856 1217 936 1197 
956 1257 1237 976 996 1277 1297 1036 1317 
1016 1056 1096 1337 1076 1357 1377 1397 1157 
1116 1176 1417 1156 1437 1477 1215 1196 1457 
1497 1256 1517 1236 1276 1557 1537 1296 1597 
1577 1336 1316 1376 1295 1637 1617 1356 1416 
1657 1396 17 57 1456 37 1436 97 1496 
1476 77 1516 1435 117 1415 1556 1455 137 
1536 157 177 1596 1576 197 237 1616 1636 
217 277 16 297 1656 317 337 56 36 
1058 799 1038 819 1098 1078 859 839 1118 
879 899 1138 919 1178 939 1158 959 1198 
979 1218 1258 999 1238 1019 1298 1278 1059 
1039 1318 1338 1099 1079 1119 1358 1139 1159 
1378 1179 1418 1398 1199 1239 1438 1458 1219 
1259 1478 1518 1279 1498 1319 1558 1538 1299 
1339 1359 1598 1379 1578 1419 1618 1638 1399 
1658 18 1459 1439 58 1499 1479 78 38 
118 1519 1539 98 158 138 1579 1559 198 
178 1619 1599 1639 218 19 1659 238 59 
278 258 39 318 99 79 338 298 378 
358 119 139 418 159 398 179 199 219 
458 438 478 239 259 498 299 279 518 
538 558 319 578 339 359 618 379 598 
658 638 419 399 459 439 698 678 718 
738 499 479 758 778 519 539 798 559 
818 579 599 619 858 838 878 898 639 
659 679 918 938 958 719 699 739 978 
779 1018 759 998 2400 2398 2399 2401 2405 
2403 2402 2404 2407 2409 2408 2406 2412 2411 
2410 2413 2417 2415 2414 2416 2419 2421 2418 
2420 2427 2426 2423 2424 2422 2425 2430 2429 
2428 2431 2432 2433 2434 2435 2438 2437 2436 
2439 2443 2441 2442 2440 2444 2445 2447 2446 
2451 2450 2449 2448 2455 2453 2452 2454 2457 
2458 2459 2456 2461 2462 2460 2463 2464 2465 
2467 2466 2471 2468 2469 2470 2474 2475 2472 
2473 2477 2481 2478 2476 2480 2479 2482 2483 
2484 2485 2486 2487 2489 2488 2493 2492 2490 
2491 2497 2496 2495 2494 2501 2498 2499 2500 
2504 2502 2505 2503 2507 2506 2508 2509 2511 
2512 2513 2510 2517 2515 2514 2516 2519 2520 
2518 2521 2522 2523 2524 2525 2527 2526 2528 
2529 2532 2533 2531 2530 2534 2535 2536 2537 
2538 2539 2542 2540 2543 2541 2547 2546 2544 
2545 2548 2549 2550 2551 2553 2554 2555 2552 
2558 2556 2557 2559 2560 2561 2562 2563 
FIELD FieldData 7
r 3 2798 float
-0.5375 -0.4875 0 -0.5375 -0.4625 0 -0.5125 -0.4875 0 
-0.5125 -0.4625 0 -0.487805 -0.4875 0 -0.463415 -0.4875 0 
-0.463415 -0.4625 0 -0.487805 -0.4625 0 -0.439024 -0.4875 0 
-0.414634 -0.4625 0 -0.414634 -0.4875 0 -0.439024 -0.4625 0 
-0.390244 -0.4625 0 -0.365854 -0.4625 0 -0.365854 -0.4875 0 
-0.390244 -0.4875 0 -0.341463 -0.4625 0 -0.317073 -0.4625 0 
-0.317073 -0.4875 0 -0.341463 -0.4875 0 -0.268293 -0.4875 0 
-0.292683 -0.4625 0 -0.292683 -0.4875 0 -0.268293 -0.4625 0 
-0.243902 -0.4625 0 -0.219512 -0.4625 0 -0.219512 -0.4875 0 
-0.243902 -0.4875 0 -0.170732 -0.4875 0 -0.195122 -0.4875 0 
-0.170732 -0.4625 0 -0.195122 -0.4625 0 -0.121951 -0.4875 0 
-0.121951 -0.4625 0 -0.146341 -0.4625 0 -0.146341 -0.4875 0 
-0.097561 -0.4875 0 -0.097561 -0.4625 0 -0.0731707 -0.4875 0 
-0.0731707 -0.4625 0 -0.0487805 -0.4625 0 -1.86265e-08 -0.4625 0 
-0.0243903 -0.4625 0 -1.86265e-08 -0.4875 0 -0.0487805 -0.4875 0 
-0.0243903 -0.4875 0 0.0487805 -0.4875 0 0.0243902 -0.4625 0 
0.0243902 -0.4875 0 0.0487805 -0.4625 0 0.0731707 -0.4875 0 
0.0731707 -0.4625 0 0.097561 -0.4625 0 0.097561 -0.4875 0 
0.121951 -0.4875 0 0.146341 -0.4875 0 0.121951 -0.4625 0 
0.146341 -0.4625 0 0.195122 -0.4625 0 0.170732 -0.4875 0 
0.195122 -0.4875 0 0.170732 -0.4625 0 0.219512 -0.4625 0 
0.219512 -0.4875 0 0.243902 -0.4875 0 0.243902 -0.4625 0 
0.268293 -0.4625 0 0.292683 -0.4625 0 0.292683 -0.4875 0 
0.268293 -0.4875 0 0.317073 -0.4625 0 0.341463 -0.4625 0 
0.341463 -0.4875 0 0.317073 -0.4875 0 0.390244 -0.4875 0 
0.390244 -0.4625 0 0.365854 -0.4875 0 0.365854 -0.4625 0 
0.439024 -0.4625 0 0.414634 -0.4625 0 0.439024 -0.4875 0 
0.414634 -0.4875 0 0.463415 -0.4625 0 0.463415 -0.4875 0 
0.487805 -0.4875 0 0.487805 -0.4625 0 0.5125 -0.4625 0 
0.5125 -0.4875 0 0.5375 -0.4625 0 0.5375 -0.4875 0 
-0.5125 -0.4125 0 -0.5125 -0.4375 0 -0.5375 -0.4125 0 
-0.5375 -0.4375 0 -0.465135 -0.43805 0 -0.466323 -0.412473 0 
-0.489124 -0.43672 0 -0.488626 -0.409882 0 -0.443539 -0.433368 0 
-0.421285 -0.438566 0 -0.430769 -0.410884 0 -0.40796 -0.41135 0 
-0.398034 -0.436127 0 -0.363537 -0.408561 0 -0.355149 -0.43646 0 
-0.385748 -0.40651 0 -0.376732 -0.434797 0 -0.309321 -0.438594 0 
-0.317555 -0.413042 0 -0.341189 -0.408821 0 -0.33326 -0.436141 0 
-0.289744 -0.430942 0 -0.268935 -0.438431 0 -0.256859 -0.409905 0 
-0.278792 -0.40821 0 -0.234459 -0.408155 0 -0.224602 -0.436674 0 
-0.246501 -0.435257 0 -0.202064 -0.436097 0 -0.212313 -0.409973 0 
-0.155416 -0.435901 0 -0.166282 -0.412844 0 -0.189171 -0.410432 0 
-0.179192 -0.438178 0 -0.104463 -0.411477 0 -0.134011 -0.436241 0 
-0.128083 -0.412608 0 -0.109999 -0.43846 0 -0.147542 -0.401252 0 
-0.0578235 -0.413697 0 -0.0799099 -0.408668 0 -0.0652996 -0.438914 0 
-0.0877194 -0.434699 0 -0.0267092 -0.412029 0 -0.04173 -0.435391 0 
-0.0189434 -0.437938 0 -0.00409112 -0.410325 0 0.0197554 -0.411553 0 
0.0269857 -0.437408 0 0.00388477 -0.436441 0 0.043934 -0.412524 0 
0.0675336 -0.411422 0 0.0971837 -0.437066 0 0.0742088 -0.437049 0 
0.0912633 -0.411031 0 0.0508009 -0.437659 0 0.120397 -0.437211 0 
0.143703 -0.437167 0 0.115029 -0.411671 0 0.139247 -0.411641 0 
0.167361 -0.437599 0 0.19089 -0.436633 0 0.188377 -0.412575 0 
0.163411 -0.412311 0 0.239002 -0.436504 0 0.239278 -0.40837 0 
0.216681 -0.415384 0 0.214801 -0.438563 0 0.286995 -0.43879 0 
0.262351 -0.414306 0 0.262148 -0.437477 0 0.291963 -0.417112 0 
0.339822 -0.438207 0 0.318979 -0.417177 0 0.337137 -0.403139 0 
0.314148 -0.43922 0 0.36814 -0.440022 0 0.379683 -0.414655 0 
0.393474 -0.437563 0 0.354894 -0.419559 0 0.445332 -0.406669 0 
0.419836 -0.440811 0 0.405597 -0.414675 0 0.429424 -0.421088 0 
0.449959 -0.44057 0 0.485418 -0.440728 0 0.489723 -0.416797 0 
0.465139 -0.425665 0 0.5375 -0.4125 0 0.5125 -0.4375 0 
0.5375 -0.4375 0 0.5125 -0.4125 0 -0.5125 -0.3625 0 
-0.5125 -0.3875 0 -0.5375 -0.3875 0 -0.5375 -0.3625 0 
-0.467345 -0.381454 0 -0.456525 -0.361003 0 -0.488563 -0.357698 0 
-0.488885 -0.38388 0 -0.4145 -0.385928 0 -0.435271 -0.376196 0 
-0.410536 -0.359952 0 -0.448695 -0.397832 0 -0.390676 -0.38156 0 
-0.363634 -0.383195 0 -0.379513 -0.361203 0 -0.346526 -0.365686 0 
-0.321231 -0.354692 0 -0.334564 -0.386245 0 -0.312981 -0.37819 0 
-0.300544 -0.399658 0 -0.293936 -0.358993 0 -0.262684 -0.357067 0 
-0.283148 -0.37921 0 -0.260607 -0.382973 0 -0.238801 -0.354678 0 
-0.214988 -0.38307 0 -0.215199 -0.357131 0 -0.238034 -0.381142 0 
-0.191052 -0.35953 0 -0.169144 -0.384065 0 -0.191482 -0.384646 0 
-0.154542 -0.367022 0 -0.133884 -0.380881 0 -0.111615 -0.387478 0 
-0.129633 -0.35479 0 -0.106993 -0.362394 0 -0.062903 -0.382729 0 
-0.0869025 -0.385045 0 -0.081326 -0.360651 0 -0.0506552 -0.362314 0 
-0.00843329 -0.385622 0 -0.0284895 -0.376013 0 -0.0422619 -0.395591 0 
-0.0107588 -0.356139 0 0.0399894 -0.387912 0 0.0154991 -0.385776 0 
0.0355018 -0.362942 0 0.0111061 -0.360705 0 0.0945512 -0.364665 0 
0.0646791 -0.38576 0 0.0882785 -0.385993 0 0.0602997 -0.362776 0 
0.11452 -0.387516 0 0.141267 -0.3879 0 0.123236 -0.366103 0 
0.174789 -0.354441 0 0.169643 -0.389941 0 0.187239 -0.374725 0 
0.154193 -0.3687 0 0.227505 -0.351205 0 0.225761 -0.386645 0 
0.202384 -0.394136 0 0.209436 -0.365124 0 0.2436 -0.371885 0 
0.296949 -0.372827 0 0.282281 -0.396053 0 0.259381 -0.388424 0 
0.273838 -0.366863 0 0.308898 -0.393636 0 0.328144 -0.378696 0 
0.322499 -0.356138 0 0.350088 -0.369234 0 0.358795 -0.392181 0 
0.382803 -0.390241 0 0.377369 -0.36751 0 0.406709 -0.391053 0 
0.430202 -0.363752 0 0.429474 -0.388845 0 0.4059 -0.366115 0 
0.467879 -0.398538 0 0.45404 -0.37802 0 0.488965 -0.390182 0 
0.462082 -0.358243 0 0.484939 -0.368161 0 0.5125 -0.3875 0 
0.5125 -0.3625 0 0.5375 -0.3625 0 0.5375 -0.3875 0 
-0.5375 -0.3375 0 -0.5375 -0.3125 0 -0.5125 -0.3375 0 
-0.5125 -0.3125 0 -0.469612 -0.342141 0 -0.45118 -0.300382 0 
-0.490822 -0.328423 0 -0.471506 -0.313671 0 -0.434025 -0.349085 0 
-0.448414 -0.328084 0 -0.417192 -0.330942 0 -0.427735 -0.310576 0 
-0.360716 -0.345946 0 -0.371666 -0.325392 0 -0.393788 -0.341781 0 
-0.395375 -0.315589 0 -0.371909 -0.30074 0 -0.302706 -0.33478 0 
-0.347205 -0.315276 0 -0.319384 -0.318191 0 -0.336676 -0.337395 0 
-0.252196 -0.330025 0 -0.291286 -0.311029 0 -0.277587 -0.338769 0 
-0.268919 -0.312252 0 -0.237105 -0.305719 0 -0.204664 -0.33357 0 
-0.228026 -0.329323 0 -0.210384 -0.306718 0 -0.171754 -0.349199 0 
-0.18758 -0.300922 0 -0.160696 -0.317862 0 -0.183295 -0.326201 0 
-0.148472 -0.33901 0 -0.137672 -0.310494 0 -0.106236 -0.310476 0 
-0.122516 -0.329853 0 -0.067221 -0.342569 0 -0.0822064 -0.322429 0 
-0.0634997 -0.306396 0 -0.0992368 -0.339123 0 -0.0187654 -0.325439 0 
-0.0355141 -0.30586 0 -0.0489038 -0.326982 0 -0.0328132 -0.346233 0 
0.0112965 -0.306872 0 0.0487075 -0.338102 0 0.00305134 -0.331772 0 