# vtk DataFile Version 4.0
vtk output
ASCII
DATASET POLYDATA
FIELD FieldData 4
domain 1 3 string
domain_min:-20|-15
domain_max:20|15
cell_size:0.05

variables 1 2 string
dt:0.000372678
T:1.5294

constants 1 10 string
xsize:2
ysize:1
csize:0.05
dx:0.0238095
h:0.025
rho0:1000
mass:0.566894
g:1|0
c:13.4164
CFL:0.2

functions 1 8 string
time:T=(T+dt)
continuity:rho_dot=((-(rho*sph_D00(v,mass,rho,Wp52220)))+(((0.1*c)*h)*sph_L00(rho,mass,rho,Wp52220)))
irho:rho=(rho+int1((rho_dot,dt))
EOS:p=(((c^2)*(rho-rho0))+10000)
euler:a=if((gid,(0*v),(((-((1/rho)*sph_G11(p,mass,rho,Wp52220)))+(0.01*sph_L00(v,mass,rho,Wp52220)))+g))
vel:v=(v+int1((a,dt))
pos:r=(r+int1((v,dt))
new_dt:dt=(CFL*min((sqrt(((h/fmax(magnitude((a)))),(h/c)))

POINTS 2798 float
-0.5375 -0.4875 0 -0.5125 -0.4625 0 -0.5125 -0.4875 0 
-0.5375 -0.4625 0 -0.487805 -0.4875 0 -0.463415 -0.4625 0 
-0.487805 -0.4625 0 -0.463415 -0.4875 0 -0.439024 -0.4625 0 
-0.439024 -0.4875 0 -0.414634 -0.4875 0 -0.414634 -0.4625 0 
-0.390244 -0.4875 0 -0.365854 -0.4625 0 -0.390244 -0.4625 0 
-0.365854 -0.4875 0 -0.341463 -0.4625 0 -0.341463 -0.4875 0 
-0.317073 -0.4875 0 -0.317073 -0.4625 0 -0.292683 -0.4625 0 
-0.268293 -0.4625 0 -0.268293 -0.4875 0 -0.292683 -0.4875 0 
-0.219512 -0.4875 0 -0.219512 -0.4625 0 -0.243902 -0.4875 0 
-0.243902 -0.4625 0 -0.195122 -0.4625 0 -0.195122 -0.4875 0 
-0.170732 -0.4875 0 -0.170732 -0.4625 0 -0.146341 -0.4625 0 
-0.121951 -0.4875 0 -0.121951 -0.4625 0 -0.146341 -0.4875 0 
-0.0731707 -0.4875 0 -0.0731707 -0.4625 0 -0.097561 -0.4875 0 
-0.097561 -0.4625 0 -0.0243903 -0.4625 0 -1.86265e-08 -0.4875 0 
-0.0487805 -0.4625 0 -0.0487805 -0.4875 0 -0.0243903 -0.4875 0 
-1.86265e-08 -0.4625 0 0.0487805 -0.4875 0 0.0243902 -0.4625 0 
0.0243902 -0.4875 0 0.0487805 -0.4625 0 0.0731707 -0.4625 0 
0.097561 -0.4625 0 0.0731707 -0.4875 0 0.097561 -0.4875 0 
0.121951 -0.4875 0 0.146341 -0.4875 0 0.146341 -0.4625 0 
0.121951 -0.4625 0 0.195122 -0.4625 0 0.170732 -0.4875 0 
0.195122 -0.4875 0 0.170732 -0.4625 0 0.219512 -0.4625 0 
0.243902 -0.4875 0 0.219512 -0.4875 0 0.243902 -0.4625 0 
0.268293 -0.4625 0 0.268293 -0.4875 0 0.292683 -0.4625 0 
0.292683 -0.4875 0 0.341463 -0.4625 0 0.341463 -0.4875 0 
0.317073 -0.4625 0 0.317073 -0.4875 0 0.365854 -0.4625 0 
0.390244 -0.4625 0 0.390244 -0.4875 0 0.365854 -0.4875 0 
0.439024 -0.4875 0 0.414634 -0.4875 0 0.439024 -0.4625 0 
0.414634 -0.4625 0 0.463415 -0.4875 0 0.487805 -0.4625 0 
0.487805 -0.4875 0 0.463415 -0.4625 0 0.5125 -0.4875 0 
0.5375 -0.4875 0 0.5125 -0.4625 0 0.5375 -0.4625 0 
-0.5125 -0.4375 0 -0.5375 -0.4375 0 -0.5375 -0.4125 0 
-0.5125 -0.4125 0 -0.466436 -0.410477 0 -0.488224 -0.43703 0 
-0.488909 -0.410553 0 -0.464587 -0.43676 0 -0.443462 -0.409811 0 
-0.441556 -0.436689 0 -0.420131 -0.413394 0 -0.41707 -0.437809 0 
-0.392877 -0.437412 0 -0.368619 -0.436684 0 -0.395603 -0.411318 0 
-0.372346 -0.412604 0 -0.340124 -0.415058 0 -0.345364 -0.437374 0 
-0.311175 -0.411919 0 -0.320752 -0.436455 0 -0.261175 -0.412254 0 
-0.272667 -0.437138 0 -0.297233 -0.437845 0 -0.286954 -0.413326 0 
-0.248729 -0.43718 0 -0.202328 -0.436556 0 -0.213903 -0.410566 0 
-0.225445 -0.43674 0 -0.23737 -0.410869 0 -0.165406 -0.411458 0 
-0.155472 -0.43439 0 -0.189547 -0.412433 0 -0.178512 -0.438258 0 
-0.127295 -0.411801 0 -0.134679 -0.436105 0 -0.104193 -0.40991 0 
-0.111314 -0.437798 0 -0.0894481 -0.434796 0 -0.079645 -0.409121 0 
-0.0675392 -0.436892 0 -0.0581208 -0.407124 0 -0.0245931 -0.437214 0 
-0.0354501 -0.408677 0 -0.00138827 -0.436678 0 -0.0463472 -0.434374 0 
-0.0118946 -0.411809 0 0.0337519 -0.41132 0 0.0105294 -0.407731 0 
0.0431114 -0.437447 0 0.0202866 -0.435775 0 0.0817812 -0.412229 0 
0.0661693 -0.436996 0 0.0897066 -0.43732 0 0.0573991 -0.411174 0 
0.137944 -0.437194 0 0.113537 -0.43812 0 0.130987 -0.413593 0 
0.106613 -0.412728 0 0.182398 -0.437257 0 0.163977 -0.411099 0 
0.159609 -0.435379 0 0.188448 -0.411291 0 0.231487 -0.402875 0 
0.205356 -0.438001 0 0.227656 -0.434841 0 0.248985 -0.436531 0 
0.212106 -0.411567 0 0.297438 -0.404522 0 0.272606 -0.438978 0 
0.253224 -0.412753 0 0.290496 -0.428862 0 0.273678 -0.406058 0 
0.339353 -0.439737 0 0.310763 -0.440301 0 0.320897 -0.419072 0 
0.339107 -0.404596 0 0.371488 -0.440417 0 0.389707 -0.421103 0 
0.35559 -0.423402 0 0.372828 -0.405108 0 0.447407 -0.424224 0 
0.420614 -0.418038 0 0.443185 -0.400357 0 0.406426 -0.400695 0 
0.430186 -0.440708 0 0.401911 -0.439579 0 0.471465 -0.415538 0 
0.464173 -0.440757 0 0.489786 -0.436698 0 0.490476 -0.406782 0 
0.5125 -0.4125 0 0.5125 -0.4375 0 0.5375 -0.4125 0 
0.5375 -0.4375 0 -0.5375 -0.3875 0 -0.5125 -0.3875 0 
-0.5125 -0.3625 0 -0.5375 -0.3625 0 -0.466106 -0.358571 0 
-0.466831 -0.383351 0 -0.489032 -0.354901 0 -0.48949 -0.383061 0 
-0.430203 -0.365025 0 -0.418389 -0.388777 0 -0.444335 -0.383854 0 
-0.405268 -0.361687 0 -0.356896 -0.397027 0 -0.374465 -0.3789 0 
-0.362656 -0.356964 0 -0.394393 -0.386152 0 -0.386524 -0.350834 0 
-0.306007 -0.381387 0 -0.326881 -0.393678 0 -0.344644 -0.374968 0 
-0.323707 -0.36283 0 -0.284993 -0.389615 0 -0.292749 -0.359686 0 
-0.261356 -0.386546 0 -0.269895 -0.362499 0 -0.239052 -0.384089 0 
-0.215951 -0.384796 0 -0.226122 -0.358828 0 -0.248478 -0.355938 0 
-0.200153 -0.361837 0 -0.169589 -0.384855 0 -0.191888 -0.386902 0 
-0.157152 -0.366319 0 -0.180167 -0.354876 0 -0.13484 -0.37748 0 
-0.113122 -0.385458 0 -0.123362 -0.354222 0 -0.101433 -0.361058 0 
-0.145651 -0.399747 0 -0.0775722 -0.357981 0 -0.0641167 -0.379296 0 
-0.0881061 -0.385072 0 -0.0138219 -0.363384 0 -0.0167283 -0.386723 0 
-0.0375301 -0.357219 0 -0.0418793 -0.381898 0 0.0369414 -0.362154 0 
0.00834314 -0.381815 0 0.0139182 -0.356776 0 0.0327993 -0.385986 0 
0.0635811 -0.362871 0 0.0828576 -0.388178 0 0.0911905 -0.366713 0 
0.0576804 -0.386021 0 0.137304 -0.352042 0 0.112958 -0.358097 0 
0.128639 -0.378765 0 0.145518 -0.397178 0 0.109329 -0.389552 0 
0.180831 -0.362556 0 0.154212 -0.372022 0 0.17425 -0.38666 0 
0.199212 -0.386691 0 0.240289 -0.359999 0 0.247208 -0.384095 0 
0.20293 -0.357943 0 0.220317 -0.377617 0 0.293355 -0.377645 0 
0.270881 -0.380874 0 0.263722 -0.35645 0 0.286803 -0.350218 0 
0.316425 -0.390333 0 0.340716 -0.352989 0 0.331209 -0.373025 0 
0.309685 -0.358912 0 0.354045 -0.387258 0 0.385418 -0.3853 0 
0.364507 -0.36763 0 0.382596 -0.353671 0 0.403448 -0.370923 0 
0.425663 -0.384868 0 0.437833 -0.36695 0 0.412351 -0.35118 0 
0.488169 -0.381169 0 0.462451 -0.366907 0 0.487771 -0.357201 0 
0.463538 -0.389758 0 0.5375 -0.3875 0 0.5125 -0.3875 0 
0.5375 -0.3625 0 0.5125 -0.3625 0 -0.5375 -0.3375 0 
-0.5125 -0.3125 0 -0.5125 -0.3375 0 -0.5375 -0.3125 0 
-0.489275 -0.327375 0 -0.466915 -0.331048 0 -0.463336 -0.30746 0 
-0.489563 -0.300173 0 -0.418487 -0.339578 0 -0.445561 -0.347699 0 
-0.406566 -0.320997 0 -0.440239 -0.323022 0 -0.425982 -0.303924 0 
-0.372694 -0.302366 0 -0.383923 -0.327175 0 -0.360633 -0.329472 0 
-0.311083 -0.342155 0 -0.349263 -0.305635 0 -0.30381 -0.319369 0 
-0.33078 -0.321397 0 -0.34047 -0.343902 0 -0.282314 -0.335808 0 
-0.260877 -0.304399 0 -0.283721 -0.306949 0 -0.261038 -0.330826 0 
-0.238623 -0.329672 0 -0.219522 -0.313297 0 -0.213164 -0.338139 0 
-0.160415 -0.311745 0 -0.185504 -0.305504 0 -0.193284 -0.327797 0 
-0.168663 -0.333977 0 -0.112773 -0.33101 0 -0.145938 -0.34516 0 
-0.103658 -0.307793 0 -0.136808 -0.322939 0 -0.127961 -0.301123 0 
-0.0568035 -0.347382 0 -0.0899478 -0.334935 0 -0.0794301 -0.305946 0 
-0.0669659 -0.325046 0 -0.0149098 -0.30979 0 -0.0274279 -0.333143 0 
-0.0438202 -0.318316 0 -0.00451976 -0.34065 0 0.0438585 -0.310955 0 
0.0272492 -0.333067 0 0.024199 -0.299991 0 0.00771377 -0.319532 0 
0.0501368 -0.340274 0 0.0887109 -0.315199 0 0.0655948 -0.320496 0 
0.0789979 -0.343698 0 0.136085 -0.301466 0 0.102893 -0.335885 0 
0.127616 -0.329422 0 0.112834 -0.308296 0 0.161427 -0.345655 0 
0.173697 -0.312594 0 0.184161 -0.335209 0 0.1516 -0.322848 0 
0.195377 -0.302144 0 0.222721 -0.344866 0 0.205632 -0.326988 0 
0.221908 -0.309682 0 0.248856 -0.305643 0 0.240641 -0.329393 0 
0.275423 -0.309749 0 0.292742 -0.326987 0 0.263731 -0.331939 0 
0.336326 -0.324553 0 0.317161 -0.336745 0 0.338459 -0.302409 0 
0.310241 -0.30984 0 0.392389 -0.309568 0 0.364901 -0.316406 0 
0.359343 -0.33879 0 0.388432 -0.332086 0 0.438666 -0.317398 0 
0.414545 -0.327827 0 0.419597 -0.302316 0 0.437565 -0.343354 0 
0.462296 -0.34286 0 0.488029 -0.311143 0 0.487058 -0.33391 0 
0.46169 -0.318678 0 0.5375 -0.3375 0 0.5125 -0.3375 0 
0.5125 -0.3125 0 0.5375 -0.3125 0 -0.5125 -0.2625 0 
-0.5375 -0.2875 0 -0.5375 -0.2625 0 -0.5125 -0.2875 0 
-0.491158 -0.266882 0 -0.457915 -0.261969 0 -0.47318 -0.282233 0 
-0.446525 -0.290392 0 -0.435264 -0.268134 0 -0.407512 -0.257615 0 
-0.414046 -0.281325 0 -0.358246 -0.253633 0 -0.396087 -0.297669 0 
-0.384777 -0.274628 0 -0.360855 -0.277958 0 -0.317963 -0.2979 0 
-0.336194 -0.283772 0 -0.333657 -0.259981 0 -0.310332 -0.266645 0 
-0.251278 -0.271871 0 -0.296898 -0.285481 0 -0.283933 -0.258405 0 
-0.27176 -0.279406 0 -0.227038 -0.277952 0 -0.239944 -0.299264 0 
-0.219753 -0.254435 0 -0.206744 -0.293868 0 -0.176089 -0.282582 0 
-0.15179 -0.290143 0 -0.169462 -0.259812 0 -0.198453 -0.270523 0 
-0.12125 -0.278083 0 -0.111573 -0.25519 0 -0.14435 -0.267943 0 
-0.0864165 -0.261784 0 -0.0971421 -0.283289 0 -0.0692124 -0.283911 0 
-0.0588025 -0.262533 0 -0.00853021 -0.269589 0 -0.0268813 -0.289422 0 
-0.0363482 -0.266569 0 -0.0495571 -0.295646 0 0.0416082 -0.250338 0 
0.0136487 -0.257971 0 0.0286261 -0.274455 0 0.00302908 -0.289613 0 
0.0617606 -0.260612 0 0.0503094 -0.283736 0 0.0835761 -0.266303 0 
0.0935686 -0.288699 0 0.0698395 -0.293546 0 0.139409 -0.272422 0 
0.106591 -0.2581 0 0.117095 -0.281145 0 0.17813 -0.281659 0 
0.189694 -0.261937 0 0.157552 -0.292295 0 0.159845 -0.261515 0 
0.208064 -0.282308 0 0.243945 -0.264904 0 0.232551 -0.28615 0 
0.218313 -0.259672 0 0.29455 -0.268465 0 0.29103 -0.291988 0 
0.271136 -0.264571 0 0.26266 -0.28587 0 0.318374 -0.286605 0 
0.318593 -0.262592 0 0.344485 -0.255583 0 0.344682 -0.278329 0 
[...]
POINT_DATA 2798
SCALARS id float
LOOKUP_TABLE default
2600 2621 2620 2601 2640 2643 2641 2642 2645 
2644 2646 2647 2648 2651 2649 2650 2653 2652 
2654 2655 2657 2659 2658 2656 2662 2663 2660 
2661 2665 2664 2666 2667 2669 2670 2671 2668 
2674 2675 2672 2673 2679 2680 2677 2676 2678 
2681 2684 2683 2682 2685 2687 2689 2686 2688 
2690 2692 2693 2691 2697 2694 2696 2695 2699 
2700 2698 2701 2703 2702 2705 2704 2709 2708 
2707 2706 2711 2713 2712 2710 2716 2714 2717 
2715 2718 2721 2720 2719 2722 2742 2723 2743 
2622 2602 2603 2623 1697 1660 1661 1678 1715 
1696 1750 1714 1732 1786 1768 1823 1822 1804 
1877 1840 1931 1876 1858 1913 1894 1930 1967 
1912 1949 2003 1966 1985 1948 2057 1984 2093 
2020 2038 2111 2056 2129 2092 2147 2110 2074 
2165 2183 2184 2146 2128 2219 2164 2182 2201 
2218 2200 2255 2237 2254 2273 2236 2291 2329 
2272 2290 2309 2310 2331 2308 2328 2327 2330 
2346 2326 2347 2350 2345 2365 2348 2349 2363 
2364 2383 2366 2362 2344 2382 2380 2381 2384 
2725 2724 2745 2744 2604 2624 2625 2605 1716 
1679 1698 1662 1769 1787 1733 1806 1841 1824 
1843 1805 1825 1895 1859 1842 1860 1914 1896 
1932 1933 1950 1986 2005 1968 2022 2021 2004 
2058 2040 2039 2075 2076 2094 2002 2131 2130 
2112 2185 2166 2167 2148 2221 2203 2222 2202 
2239 2238 2257 2220 2294 2276 2275 2274 2256 
2295 2293 2292 2311 2314 2313 2296 2312 2316 
2332 2315 2300 2333 2335 2334 2317 2352 2351 
2353 2354 2369 2368 2370 2372 2385 2386 2387 
2367 2746 2726 2747 2727 2606 2627 2626 2607 
1680 1734 1752 1717 1788 1751 1807 1770 1789 
1881 1844 1862 1878 1880 1897 1879 1861 1915 
1952 1934 1951 1987 2024 2023 2078 2060 2041 
2059 2095 2077 2114 2096 2097 2149 2113 2132 
2150 2205 2186 2168 2204 2224 2223 2207 2206 
2240 2242 2241 2258 2261 2259 2277 2260 2278 
2280 2297 2279 2246 2298 2281 2264 2265 2299 
2247 2283 2282 2266 2336 2142 2230 2195 2248 
2318 2284 2267 2337 340 2371 2389 2391 2388 
2390 2748 2728 2729 2749 2629 2608 2609 2628 
1663 1753 1735 1771 1790 1845 1808 1900 1826 
1863 1899 1916 1898 1917 1935 1988 1953 1971 
1970 2006 1969 2025 2042 2061 2079 2062 2043 
2098 2099 2080 2116 2115 2133 2151 2189 2187 
2188 2169 2156 2173 2191 2190 2174 2208 2226 
2243 2225 2245 2227 2244 2263 2211 2262 2228 
2194 2072 2229 2054 2018 2125 1929 2212 21 
1441 1521 1362 1461 1481 100 1875 60 1620 
2090 0 2355 280 2231 2301 2751 2731 2750 
2730 2610 2611 2630 2631 1699 1718 1700 1664 
1681 1809 1736 1827 1772 1882 1901 1846 1864 
1883 1919 1954 1918 1936 1989 1955 1972 1990 
2008 1991 2007 2026 2027 2044 2028 2045 2010 
2063 2046 2081 2064 2047 2082 2135 2134 2117 
2170 2171 2152 2172 2154 2139 2155 2209 2123 
2140 2157 2192 2175 2158 2210 2036 2177 2053 
2193 2176 2124 2159 1911 1821 1893 1581 120 
1838 1522 140 1561 1301 1161 1122 1101 1460 
20 2213 320 2373 1341 1221 2732 2733 2753 
2752 2633 2613 2632 2612 1683 1665 1682 1701 
1737 1828 1754 1719 1847 1865 1866 1885 1884 
1937 1938 1902 1920 1956 1939 1957 1973 2009 
1976 1974 1975 1905 1977 1958 1992 2029 1993 
2011 1959 2030 2012 1994 2065 2101 2136 2100 
2083 2120 2138 2153 2137 2119 2121 2089 2104 
2122 2068 2105 2052 2087 2141 2071 2070 2033 
2106 2032 2000 2051 2088 2017 1839 2069 1857 
2035 1964 2107 1946 1600 180 1 1803 1541 
1361 40 1928 1181 1141 1201 1420 1281 1400 
1440 1321 1183 1121 2735 2734 2755 2754 2635 
2614 2615 2634 1720 1667 1666 1702 1791 1810 
1755 1792 1773 1829 1848 1831 1867 1868 1903 
1904 1921 1922 1940 1923 1834 1871 1887 1924 
1852 1817 1781 1798 1835 1711 1941 1906 1960 
1925 1995 1944 2048 2066 2014 2013 2049 2084 
2103 2118 1997 2085 2086 2067 2102 1962 2015 
80 2050 1999 1890 1785 1908 2016 1693 1856 
1980 2034 1981 1731 1963 1998 1982 1910 1820 
1802 160 1580 1241 1261 1540 1784 1520 1081 
1766 2736 2757 2756 2737 2637 2616 2636 2617 
1684 1669 1668 1703 1756 1738 1721 1774 1793 
1811 1830 1757 1849 1794 1775 1812 1813 1869 
1850 1832 1870 1795 1886 1816 1815 1851 1780 
1673 1779 1727 1797 2361 1726 1689 1746 1745 
1744 1674 1888 1978 1100 1799 1140 2031 1996 
1709 1943 1961 1927 1695 1763 1710 1728 1945 
820 1889 1874 1979 1180 1676 462 1942 1909 
1120 1783 900 1926 1837 1853 1892 1891 1220 
1801 1560 1819 1818 1749 1713 1712 1873 1767 
1480 1729 1001 1040 2758 2759 2739 2738 2566 
2564 2567 2565 2568 2569 2571 2570 2573 2575 
2574 2572 2576 2579 2578 2577 2583 2580 2581 
2582 2587 2586 2584 2585 2591 2588 2590 2589 
2593 2594 2595 2592 2596 2597 2598 2599 2618 
2619 2638 2639 1686 1704 1685 1722 1758 2374 
1670 1740 1523 1739 1741 1776 1723 1777 2234 
1742 1687 1760 1759 2376 1778 1705 1796 1724 
1833 2359 1671 1691 1762 1708 1814 1761 1725 
1707 2396 2377 640 2394 2270 2343 2235 800 
2253 2306 2145 840 1672 461 163 762 2325 
2307 1020 2199 1080 2271 2288 1060 660 542 
680 421 1675 2397 2378 2289 761 1690 223 
1300 601 1855 780 1500 482 1748 1730 2740 
2760 2761 2741 2764 2762 2763 2765 2767 2768 
2766 2769 2772 2773 2770 2771 2777 2775 2774 
2776 2780 2778 2781 2779 2785 2783 2784 2782 
2786 2788 2789 2787 2791 2792 2790 2793 2795 
2796 2797 2794 403 1021 980 901 2285 2178 
742 1401 801 2319 1000 1262 1601 1222 783 
1061 1142 2249 2160 843 1282 962 220 2338 
260 2392 903 883 240 2320 1182 1381 2302 
2232 1184 2143 1421 2214 1543 2356 2250 1402 
2215 1322 1947 1502 2126 2303 2251 1204 1342 
2357 1621 1382 1283 2305 1003 1303 1223 2216 
1582 2252 201 181 2375 2358 1542 2161 2323 
41 2198 2179 161 1105 2339 2196 2163 1483 
2233 2395 1688 1422 2393 2108 2360 1743 2180 
2321 2304 2055 2287 1564 2197 1983 162 141 
1706 143 2109 360 341 2037 2019 2268 2342 
2341 42 2217 460 500 2324 22 480 520 
83 2091 261 420 2127 860 1836 1872 1765 
561 281 1380 1907 720 1360 881 1764 481 
1160 1800 263 862 1692 1854 1747 1200 1782 
541 1041 1242 802 1260 363 1694 1677 822 
1340 1320 1240 921 941 701 682 423 1102 
981 861 1062 1202 641 382 760 880 383 
661 344 324 404 343 681 304 940 364 
522 325 960 582 703 305 583 483 602 
781 782 841 741 702 683 1082 563 662 
961 942 1002 723 803 804 922 763 744 
1203 823 1043 1022 1640 1243 982 923 863 
1023 882 625 1162 1063 1163 1103 1083 864 
1123 902 1042 1044 943 983 806 963 786 
884 766 904 1144 1024 1064 300 1143 1185 
1124 1045 1004 1302 964 984 1145 1084 925 
1263 1106 1164 1544 1104 1562 1641 200 1501 
1264 1363 1383 1602 1482 1344 1244 1463 1343 
61 1443 2162 1563 1404 81 1366 1503 1385 
1384 1424 2340 2269 1345 182 2286 3 2001 
2322 121 1644 400 1643 104 2379 63 441 
380 560 43 700 1280 221 362 4 620 
600 241 321 540 302 422 2181 521 740 
501 124 442 721 381 262 920 264 361 
401 282 722 224 402 621 204 463 323 
283 342 166 243 244 443 322 303 284 
245 205 225 186 285 206 266 226 365 
286 581 345 384 405 562 424 502 385 
444 622 366 386 643 543 821 503 544 
642 664 623 684 603 663 624 504 644 
743 824 645 704 565 604 584 665 605 
546 585 842 626 764 566 724 784 825 
785 705 844 805 765 745 725 687 924 
746 787 845 865 885 826 905 846 866 
944 867 886 887 1025 945 985 906 1065 
1085 965 1086 1066 1442 1125 1224 1087 1205 
1225 1026 1047 1165 1126 1462 1186 1364 1423 
1323 1403 1304 1365 1226 1207 23 1524 1227 
1622 2073 2144 1325 82 1346 1286 1642 1965 
84 1604 440 103 1545 1623 122 142 102 
1485 1603 1605 2 101 1585 1565 123 1525 
44 62 144 105 26 25 1624 1625 5 
301 580 45 6 1645 85 24 184 242 
27 222 183 66 203 165 7 86 67 
202 47 145 146 164 87 125 88 106 
147 126 185 127 167 187 265 207 227 
208 246 306 228 346 247 326 267 287 
523 307 406 464 484 327 524 445 425 
564 465 407 485 427 426 446 505 466 
545 525 486 507 526 506 547 646 685 
567 606 586 607 666 686 627 667 647 
706 747 707 727 726 788 767 807 708 
748 768 847 827 808 848 869 868 849 
907 966 926 888 986 1046 946 947 889 
967 927 948 1005 987 1006 1067 1007 1027 
1088 1068 1107 1265 1108 1146 1245 1089 1284 
1206 1187 1285 1128 1166 1324 1266 1246 1208 
1228 1305 1267 1583 1444 1247 1464 1406 1306 
1386 1405 1387 1425 1584 1367 1484 1504 1426 
1465 1505 1445 1486 1446 1466 1546 1487 1467 
1526 1586 64 1506 1566 1527 1567 1548 1547 
1507 65 1646 1626 1606 46 1647 1627 1609 
1648 1628 1629 28 8 1649 9 29 68 
48 49 108 69 107 148 128 168 129 
188 209 189 169 149 190 210 248 229 
268 289 288 269 249 309 308 290 329 
367 348 349 347 328 389 369 387 368 
388 408 409 428 448 447 467 468 487 
489 488 528 548 508 527 568 549 569 
588 587 608 609 589 628 649 629 648 
668 689 688 669 728 730 729 709 828 
769 749 789 829 850 809 830 851 908 
890 870 928 929 909 910 969 988 949 
968 1028 1009 989 1008 1069 1048 1029 1049 
1090 1110 1109 1127 1148 1129 1147 1167 1149 
1130 1188 1168 1189 1209 1229 1287 1248 1210 
1268 1307 1288 1308 1326 1327 1347 1328 1368 
1407 1348 1329 1428 1408 1427 1388 1429 1448 
1447 1409 1449 1468 1469 1488 1489 1508 1509 
1528 1587 1549 1529 1568 1588 1608 1569 1589 
1607 1610 1590 1591 1611 1630 1651 1631 1650 
31 30 10 11 50 51 89 70 71 
90 130 109 110 131 151 170 152 150 
191 172 171 230 250 232 231 211 251 
271 270 272 292 291 311 310 330 370 
331 350 371 391 390 411 410 429 450 
449 430 470 469 490 491 529 509 510 
511 550 570 530 551 610 590 591 571 
630 631 651 650 611 691 670 690 671 
710 731 711 770 771 750 751 791 790 
811 810 831 872 852 871 892 891 911 
912 930 951 931 950 990 991 971 970 
1011 1030 1031 1010 1070 1071 1051 1050 1112 
1091 1111 1092 1131 1169 1151 1132 1150 1211 
1230 1190 1191 1170 1249 1250 1231 1269 1289 
1309 1290 1270 1291 1310 1330 1311 1369 1350 
1349 1331 1370 1410 1390 1389 1431 1430 1411 
1450 1471 1470 1491 1490 1451 1510 1530 1511 
1531 1551 1550 1570 1571 1593 1612 1592 1613 
1632 1652 1653 1633 13 33 32 12 53 
73 52 72 91 112 93 92 111 134 
154 153 132 133 174 173 193 192 212 
213 234 233 273 252 253 312 313 293 
294 333 332 352 351 392 372 393 413 
433 431 412 432 451 452 472 471 492 
512 513 493 532 531 552 553 572 573 
592 613 593 612 653 652 633 632 672 
673 693 692 713 712 733 732 752 773 
753 772 792 813 793 812 874 873 854 
853 832 833 893 894 914 913 953 932 
952 933 973 972 992 993 1012 1032 1033 
1013 1053 1052 1073 1072 1113 1114 1094 1093 
1133 1152 1134 1153 1171 1172 1192 1212 1213 
1232 1233 1251 1252 1271 1272 1293 1313 1312 
1292 1333 1351 1352 1353 1332 1372 1391 1392 
1371 1413 1412 1433 1432 1492 1452 1473 1472 
1493 1453 1513 1533 1532 1512 1572 1573 1553 
1552 1594 1595 1614 1615 1635 1634 15 1654 
1655 34 35 55 14 54 74 95 94 
75 115 114 135 113 156 175 155 196 
176 195 194 276 235 215 275 296 255 
214 274 295 254 315 334 314 354 395 
375 374 353 373 394 414 415 454 455 
434 435 473 474 495 453 475 494 515 
514 534 575 533 554 555 574 615 595 
614 594 655 654 634 635 694 675 674 
695 714 735 715 734 754 755 774 775 
815 814 795 794 896 855 834 835 875 
915 895 916 935 934 975 955 954 995 
1015 974 994 1075 1055 1034 1014 1035 1095 
1054 1074 1136 1135 1155 1175 1115 1154 1194 
1173 1174 1214 1193 1235 1234 1275 1254 1253 
1255 1274 1315 1294 1273 1295 1314 1355 1334 
1335 1374 1375 1354 1395 1394 1415 1393 1414 
1373 1454 1435 1455 1434 1495 1474 1475 1494 
1515 1534 1514 1535 1574 1555 1575 1554 1656 
117 1636 97 157 36 137 16 177 56 
76 197 217 237 116 96 136 257 297 
277 216 337 317 236 357 377 397 256 
316 437 417 336 335 376 356 457 355 
497 396 477 517 537 436 416 476 577 
456 557 496 516 617 597 637 657 536 
535 677 556 697 737 596 717 616 757 
576 777 656 797 636 696 837 676 817 
857 716 877 736 917 897 776 756 937 
796 816 957 836 997 856 977 876 936 
956 1037 1017 1057 996 976 1077 1097 1016 
1117 1036 1056 1137 1076 1177 1096 1197 1116 
1217 1237 1156 1157 1257 1176 1297 1196 1277 
1317 1216 1195 1337 1215 1236 1256 1377 1357 
1397 1276 1296 1417 1437 1316 1336 1457 1356 
1497 1376 1477 1517 1396 1416 1537 1577 1557 
1436 1456 1597 1476 1496 1617 1516 1657 1536 
1637 1576 1556 37 17 57 1596 77 1616 
1499 538 518 1519 578 1539 558 1579 1559 
618 598 638 1619 658 1599 678 1659 698 
1639 39 738 718 59 19 99 79 778 
758 119 798 818 139 838 179 878 858 
159 199 239 898 918 219 259 938 279 
958 299 319 978 998 1018 1038 359 339 
1078 399 1058 379 1118 1098 439 459 419 
1138 1158 499 479 1198 519 1178 1218 539 
1258 559 579 1238 1298 619 1278 599 639 
679 659 1338 1318 1358 699 1378 719 1418 
1398 759 739 779 1458 1438 799 1478 1498 
819 839 879 1518 1538 859 1558 919 899 
1598 1578 1638 939 959 1618 1658 979 18 
999 38 1039 58 1019 1059 1079 78 98 
118 1099 1119 138 1159 158 1139 178 198 
1199 1179 218 238 1219 1239 258 278 298 
1259 1279 338 1319 358 1299 318 378 1339 
398 1359 418 1399 1379 438 1419 458 478 
1439 498 1459 1479 2401 2398 2400 2399 2402 
2405 2403 2404 2409 2408 2406 2407 2411 2410 
2413 2412 2417 2416 2414 2415 2418 2421 2420 
2419 2422 2424 2425 2427 2426 2423 2428 2430 
2429 2431 2434 2432 2433 2435 2437 2439 2436 
2438 2443 2442 2440 2441 2445 2446 2447 2444 
2451 2449 2450 2448 2455 2453 2454 2452 2456 
2457 2458 2459 2463 2461 2460 2462 2466 2467 
2465 2464 2469 2471 2470 2468 2474 2475 2472 
2473 2478 2476 2479 2481 2477 2480 2485 2484 
2483 2482 2486 2489 2488 2487 2493 2492 2490 
2491 2497 2496 2495 2494 2501 2500 2499 2498 
2502 2505 2503 2504 2509 2508 2507 2506 2511 
2512 2513 2510 2516 2514 2515 2517 2520 2518 
2521 2519 2524 2525 2522 2523 2527 2528 2529 
2526 2530 2531 2532 2533 2534 2535 2536 2537 
2538 2539 2540 2541 2543 2542 2544 2545 2546 
2547 2548 2551 2550 2549 2554 2555 2553 2552 
2558 2556 2557 2559 2560 2561 2562 2563 
FIELD FieldData 7
r 3 2798 float
-0.5375 -0.4875 0 -0.5125 -0.4625 0 -0.5125 -0.4875 0 
-0.5375 -0.4625 0 -0.487805 -0.4875 0 -0.463415 -0.4625 0 
-0.487805 -0.4625 0 -0.463415 -0.4875 0 -0.439024 -0.4625 0 
-0.439024 -0.4875 0 -0.414634 -0.4875 0 -0.414634 -0.4625 0 
-0.390244 -0.4875 0 -0.365854 -0.4625 0 -0.390244 -0.4625 0 
-0.365854 -0.4875 0 -0.341463 -0.4625 0 -0.341463 -0.4875 0 
-0.317073 -0.4875 0 -0.317073 -0.4625 0 -0.292683 -0.4625 0 
-0.268293 -0.4625 0 -0.268293 -0.4875 0 -0.292683 -0.4875 0 
-0.219512 -0.4875 0 -0.219512 -0.4625 0 -0.243902 -0.4875 0 
-0.243902 -0.4625 0 -0.195122 -0.4625 0 -0.195122 -0.4875 0 
-0.170732 -0.4875 0 -0.170732 -0.4625 0 -0.146341 -0.4625 0 
-0.121951 -0.4875 0 -0.121951 -0.4625 0 -0.146341 -0.4875 0 
-0.0731707 -0.4875 0 -0.0731707 -0.4625 0 -0.097561 -0.4875 0 
-0.097561 -0.4625 0 -0.0243903 -0.4625 0 -1.86265e-08 -0.4875 0 
-0.0487805 -0.4625 0 -0.0487805 -0.4875 0 -0.0243903 -0.4875 0 
-1.86265e-08 -0.4625 0 0.0487805 -0.4875 0 0.0243902 -0.4625 0 
0.0243902 -0.4875 0 0.0487805 -0.4625 0 0.0731707 -0.4625 0 
0.097561 -0.4625 0 0.0731707 -0.4875 0 0.097561 -0.4875 0 
0.121951 -0.4875 0 0.146341 -0.4875 0 0.146341 -0.4625 0 
0.121951 -0.4625 0 0.195122 -0.4625 0 0.170732 -0.4875 0 
0.195122 -0.4875 0 0.170732 -0.4625 0 0.219512 -0.4625 0 
0.243902 -0.4875 0 0.219512 -0.4875 0 0.243902 -0.4625 0 
0.268293 -0.4625 0 0.268293 -0.4875 0 0.292683 -0.4625 0 
0.292683 -0.4875 0 0.341463 -0.4625 0 0.341463 -0.4875 0 
0.317073 -0.4625 0 0.317073 -0.4875 0 0.365854 -0.4625 0 
0.390244 -0.4625 0 0.390244 -0.4875 0 0.365854 -0.4875 0 
0.439024 -0.4875 0 0.414634 -0.4875 0 0.439024 -0.4625 0 
0.414634 -0.4625 0 0.463415 -0.4875 0 0.487805 -0.4625 0 
0.487805 -0.4875 0 0.463415 -0.4625 0 0.5125 -0.4875 0 
0.5375 -0.4875 0 0.5125 -0.4625 0 0.5375 -0.4625 0 
-0.5125 -0.4375 0 -0.5375 -0.4375 0 -0.5375 -0.4125 0 
-0.5125 -0.4125 0 -0.466436 -0.410477 0 -0.488224 -0.43703 0 
-0.488909 -0.410553 0 -0.464587 -0.43676 0 -0.443462 -0.409811 0 
-0.441556 -0.436689 0 -0.420131 -0.413394 0 -0.41707 -0.437809 0 
-0.392877 -0.437412 0 -0.368619 -0.436684 0 -0.395603 -0.411318 0 
-0.372346 -0.412604 0 -0.340124 -0.415058 0 -0.345364 -0.437374 0 
-0.311175 -0.411919 0 -0.320752 -0.436455 0 -0.261175 -0.412254 0 
-0.272667 -0.437138 0 -0.297233 -0.437845 0 -0.286954 -0.413326 0 
-0.248729 -0.43718 0 -0.202328 -0.436556 0 -0.213903 -0.410566 0 
-0.225445 -0.43674 0 -0.23737 -0.410869 0 -0.165406 -0.411458 0 
-0.155472 -0.43439 0 -0.189547 -0.412433 0 -0.178512 -0.438258 0 
-0.127295 -0.411801 0 -0.134679 -0.436105 0 -0.104193 -0.40991 0 
-0.111314 -0.437798 0 -0.0894481 -0.434796 0 -0.079645 -0.409121 0 
-0.0675392 -0.436892 0 -0.0581208 -0.407124 0 -0.0245931 -0.437214 0 
-0.0354501 -0.408677 0 -0.00138827 -0.436678 0 -0.0463472 -0.434374 0 
-0.0118946 -0.411809 0 0.0337519 -0.41132 0 0.0105294 -0.407731 0 
0.0431114 -0.437447 0 0.0202866 -0.435775 0 0.0817812 -0.412229 0 
0.0661693 -0.436996 0 0.0897066 -0.43732 0 0.0573991 -0.411174 0 
0.137944 -0.437194 0 0.113537 -0.43812 0 0.130987 -0.413593 0 
0.106613 -0.412728 0 0.182398 -0.437257 0 0.163977 -0.411099 0 
0.159609 -0.435379 0 0.188448 -0.411291 0 0.231487 -0.402875 0 
0.205356 -0.438001 0 0.227656 -0.434841 0 0.248985 -0.436531 0 
0.212106 -0.411567 0 0.297438 -0.404522 0 0.272606 -0.438978 0 
0.253224 -0.412753 0 0.290496 -0.428862 0 0.273678 -0.406058 0 
0.339353 -0.439737 0 0.310763 -0.440301 0 0.320897 -0.419072 0 
0.339107 -0.404596 0 0.371488 -0.440417 0 0.389707 -0.421103 0 
0.35559 -0.423402 0 0.372828 -0.405108 0 0.447407 -0.424224 0 
0.420614 -0.418038 0 0.443185 -0.400357 0 0.406426 -0.400695 0 
0.430186 -0.440708 0 0.401911 -0.439579 0 0.471465 -0.415538 0 
0.464173 -0.440757 0 0.489786 -0.436698 0 0.490476 -0.406782 0 
0.5125 -0.4125 0 0.5125 -0.4375 0 0.5375 -0.4125 0 
0.5375 -0.4375 0 -0.5375 -0.3875 0 -0.5125 -0.3875 0 
-0.5125 -0.3625 0 -0.5375 -0.3625 0 -0.466106 -0.358571 0 
-0.466831 -0.383351 0 -0.489032 -0.354901 0 -0.48949 -0.383061 0 
-0.430203 -0.365025 0 -0.418389 -0.388777 0 -0.444335 -0.383854 0 
-0.405268 -0.361687 0 -0.356896 -0.397027 0 -0.374465 -0.3789 0 
-0.362656 -0.356964 0 -0.394393 -0.386152 0 -0.386524 -0.350834 0 
-0.306007 -0.381387 0 -0.326881 -0.393678 0 -0.344644 -0.374968 0 
-0.323707 -0.36283 0 -0.284993 -0.389615 0 -0.292749 -0.359686 0 
-0.261356 -0.386546 0 -0.269895 -0.362499 0 -0.239052 -0.384089 0 
-0.215951 -0.384796 0 -0.226122 -0.358828 0 -0.248478 -0.355938 0 
-0.200153 -0.361837 0 -0.169589 -0.384855 0 -0.191888 -0.386902 0 
-0.157152 -0.366319 0 -0.180167 -0.354876 0 -0.13484 -0.37748 0 
-0.113122 -0.385458 0 -0.123362 -0.354222 0 -0.101433 -0.361058 0 
-0.145651 -0.399747 0 -0.0775722 -0.357981 0 -0.0641167 -0.379296 0 
-0.0881061 -0.385072 0 -0.0138219 -0.363384 0 -0.0167283 -0.386723 0 
-0.0375301 -0.357219 0 -0.0418793 -0.381898 0 0.0369414 -0.362154 0 
0.00834314 -0.381815 0 0.0139182 -0.356776 0 0.0327993 -0.385986 0 
0.0635811 -0.362871 0 0.0828576 -0.388178 0 0.0911905 -0.366713 0 
0.0576804 -0.386021 0 0.137304 -0.352042 0 0.112958 -0.358097 0 
0.128639 -0.378765 0 0.145518 -0.397178 0 0.109329 -0.389552 0 
0.180831 -0.362556 0 0.154212 -0.372022 0 0.17425 -0.38666 0 
0.199212 -0.386691 0 0.240289 -0.359999 0 0.247208 -0.384095 0 
0.20293 -0.357943 0 0.220317 -0.377617 0 0.293355 -0.377645 0 
0.270881 -0.380874 0 0.263722 -0.35645 0 0.286803 -0.350218 0 
0.316425 -0.390333 0 0.340716 -0.352989 0 0.331209 -0.373025 0 
0.309685 -0.358912 0 0.354045 -0.387258 0 0.385418 -0.3853 0 
0.364507 -0.36763 0 0.382596 -0.353671 0 0.403448 -0.370923 0 
0.425663 -0.384868 0 0.437833 -0.36695 0 0.412351 -0.35118 0 
0.488169 -0.381169 0 0.462451 -0.366907 0 0.487771 -0.357201 0 
0.463538 -0.389758 0 0.5375 -0.3875 0 0.5125 -0.3875 0 
0.5375 -0.3625 0 0.5125 -0.3625 0 -0.5375 -0.3375 0 
-0.5125 -0.3125 0 -0.5125 -0.3375 0 -0.5375 -0.3125 0 
-0.489275 -0.327375 0 -0.466915 -0.331048 0 -0.463336 -0.30746 0 
-0.489563 -0.300173 0 -0.418487 -0.339578 0 -0.445561 -0.347699 0 
-0.406566 -0.320997 0 -0.440239 -0.323022 0 -0.425982 -0.303924 0 
-0.372694 -0.302366 0 -0.383923 -0.327175 0 -0.360633 -0.329472 0 
-0.311083 -0.342155 0 -0.349263 -0.305635 0 -0.30381 -0.319369 0 
-0.33078 -0.321397 0 -0.34047 -0.343902 0 -0.282314 -0.335808 0 
-0.260877 -0.304399 0 -0.283721 -0.306949 0 -0.261038 -0.330826 0 
-0.238623 -0.329672 0 -0.219522 -0.313297 0 -0.213164 -0.338139 0 
-0.160415 -0.311745 0 -0.185504 -0.305504 0 -0.193284 -0.327797 0 
-0.168663 -0.333977 0 -0.112773 -0.33101 0 -0.145938 -0.34516 0 
-0.103658 -0.307793 0 -0.136808 -0.322939 0 -0.127961 -0.301123 0 
-0.0568035 -0.347382 0 -0.0899478 -0.334935 0 -0.0794301 -0.305946 0 
-0.0669659 -0.325046 0 -0.0149098 -0.30979 0 -0.0274279 -0.333143 0 