# vtk DataFile Version 4.0
vtk output
ASCII
DATASET POLYDATA
FIELD FieldData 4
domain 1 3 string
domain_min:-20|-15
domain_max:20|15
cell_size:0.05

variables 1 2 string
dt:0.000372678
T:0.684232

constants 1 10 string
xsize:2
ysize:1
csize:0.05
dx:0.0238095
h:0.025
rho0:1000
mass:0.566894
g:1|0
c:13.4164
CFL:0.2

functions 1 8 string
time:T=(T+dt)
continuity:rho_dot=((-(rho*sph_D00(v,mass,rho,Wp52220)))+(((0.1*c)*h)*sph_L00(rho,mass,rho,Wp52220)))
irho:rho=(rho+int1((rho_dot,dt))
EOS:p=(((c^2)*(rho-rho0))+10000)
euler:a=if((gid,(0*v),(((-((1/rho)*sph_G11(p,mass,rho,Wp52220)))+(0.01*sph_L00(v,mass,rho,Wp52220)))+g))
vel:v=(v+int1((a,dt))
pos:r=(r+int1((v,dt))
new_dt:dt=(CFL*min((sqrt(((h/fmax(magnitude((a)))),(h/c)))

POINTS 2798 float
-0.5125 -0.4875 0 -0.5375 -0.4625 0 -0.5375 -0.4875 0 
-0.5125 -0.4625 0 -0.487805 -0.4875 0 -0.463415 -0.4625 0 
-0.487805 -0.4625 0 -0.463415 -0.4875 0 -0.414634 -0.4625 0 
-0.439024 -0.4875 0 -0.414634 -0.4875 0 -0.439024 -0.4625 0 
-0.365854 -0.4625 0 -0.365854 -0.4875 0 -0.390244 -0.4625 0 
-0.390244 -0.4875 0 -0.317073 -0.4625 0 -0.317073 -0.4875 0 
-0.341463 -0.4625 0 -0.341463 -0.4875 0 -0.292683 -0.4625 0 
-0.268293 -0.4875 0 -0.268293 -0.4625 0 -0.292683 -0.4875 0 
-0.243902 -0.4875 0 -0.219512 -0.4875 0 -0.243902 -0.4625 0 
-0.219512 -0.4625 0 -0.170732 -0.4875 0 -0.195122 -0.4875 0 
-0.170732 -0.4625 0 -0.195122 -0.4625 0 -0.146341 -0.4625 0 
-0.146341 -0.4875 0 -0.121951 -0.4625 0 -0.121951 -0.4875 0 
-0.0731707 -0.4625 0 -0.0731707 -0.4875 0 -0.097561 -0.4625 0 
-0.097561 -0.4875 0 -0.0243903 -0.4875 0 -1.86265e-08 -0.4625 0 
-0.0243903 -0.4625 0 -0.0487805 -0.4875 0 -0.0487805 -0.4625 0 
-1.86265e-08 -0.4875 0 0.0243902 -0.4875 0 0.0243902 -0.4625 0 
0.0487805 -0.4625 0 0.0487805 -0.4875 0 0.0731707 -0.4625 0 
0.097561 -0.4625 0 0.0731707 -0.4875 0 0.097561 -0.4875 0 
0.121951 -0.4875 0 0.121951 -0.4625 0 0.146341 -0.4875 0 
0.146341 -0.4625 0 0.170732 -0.4625 0 0.195122 -0.4875 0 
0.195122 -0.4625 0 0.170732 -0.4875 0 0.243902 -0.4875 0 
0.243902 -0.4625 0 0.219512 -0.4625 0 0.219512 -0.4875 0 
0.292683 -0.4625 0 0.292683 -0.4875 0 0.268293 -0.4875 0 
0.268293 -0.4625 0 0.317073 -0.4875 0 0.341463 -0.4875 0 
0.341463 -0.4625 0 0.317073 -0.4625 0 0.365854 -0.4625 0 
0.390244 -0.4625 0 0.390244 -0.4875 0 0.365854 -0.4875 0 
0.414634 -0.4875 0 0.414634 -0.4625 0 0.439024 -0.4875 0 
0.439024 -0.4625 0 0.487805 -0.4625 0 0.487805 -0.4875 0 
0.463415 -0.4625 0 0.463415 -0.4875 0 0.5125 -0.4875 0 
0.5375 -0.4875 0 0.5125 -0.4625 0 0.5375 -0.4625 0 
-0.5125 -0.4125 0 -0.5125 -0.4375 0 -0.5375 -0.4375 0 
-0.5375 -0.4125 0 -0.487926 -0.437636 0 -0.464184 -0.436172 0 
-0.487908 -0.412554 0 -0.464417 -0.409264 0 -0.417342 -0.410143 0 
-0.41689 -0.436409 0 -0.441021 -0.412143 0 -0.440581 -0.437548 0 
-0.353669 -0.411646 0 -0.394857 -0.409153 0 -0.373138 -0.432189 0 
-0.393737 -0.436946 0 -0.351481 -0.438443 0 -0.374726 -0.40123 0 
-0.330889 -0.410128 0 -0.305744 -0.436059 0 -0.327985 -0.436224 0 
-0.307873 -0.408649 0 -0.262582 -0.410206 0 -0.285371 -0.409414 0 
-0.283447 -0.436488 0 -0.260668 -0.436766 0 -0.215348 -0.412546 0 
-0.213028 -0.437685 0 -0.237218 -0.437387 0 -0.239213 -0.411654 0 
-0.190794 -0.413652 0 -0.162521 -0.438397 0 -0.165484 -0.414754 0 
-0.188123 -0.438035 0 -0.110422 -0.438382 0 -0.114071 -0.414786 0 
-0.139779 -0.415107 0 -0.136495 -0.438528 0 -0.0633884 -0.413875 0 
-0.0595889 -0.43808 0 -0.0847876 -0.438193 0 -0.0885514 -0.414356 0 
-0.0381913 -0.414267 0 -0.00890795 -0.438259 0 -0.0343453 -0.438198 0 
-0.0125195 -0.414682 0 0.0169487 -0.438478 0 0.0434359 -0.438907 0 
0.0138329 -0.415458 0 0.0409372 -0.416615 0 0.0701796 -0.438884 0 
0.0956531 -0.416241 0 0.0683364 -0.416656 0 0.0967483 -0.43873 0 
0.122497 -0.415588 0 0.148558 -0.414256 0 0.122929 -0.43856 0 
0.148409 -0.438074 0 0.198922 -0.413145 0 0.173891 -0.413311 0 
0.197497 -0.43769 0 0.173176 -0.43775 0 0.245942 -0.437629 0 
0.223882 -0.413054 0 0.248593 -0.412697 0 0.221736 -0.437674 0 
0.27004 -0.437625 0 0.296641 -0.413326 0 0.294378 -0.437962 0 
0.272723 -0.412483 0 0.34367 -0.437666 0 0.321102 -0.413564 0 
0.345552 -0.412665 0 0.319134 -0.437997 0 0.367893 -0.43787 0 
0.393255 -0.411949 0 0.36951 -0.412877 0 0.391955 -0.437415 0 
0.440026 -0.437505 0 0.41589 -0.43764 0 0.416966 -0.412566 0 
0.440935 -0.412231 0 0.488133 -0.41406 0 0.487944 -0.438374 0 
0.46379 -0.437223 0 0.464439 -0.411436 0 0.5125 -0.4125 0 
0.5125 -0.4375 0 0.5375 -0.4375 0 0.5375 -0.4125 0 
-0.5125 -0.3625 0 -0.5125 -0.3875 0 -0.5375 -0.3875 0 
-0.5375 -0.3625 0 -0.464958 -0.381741 0 -0.466266 -0.353067 0 
-0.488167 -0.362114 0 -0.487964 -0.387471 0 -0.421123 -0.356879 0 
-0.418541 -0.383682 0 -0.441911 -0.386714 0 -0.443768 -0.360853 0 
-0.355867 -0.383042 0 -0.399874 -0.351488 0 -0.376857 -0.370831 0 
-0.357909 -0.353361 0 -0.396684 -0.380478 0 -0.333509 -0.384167 0 
-0.336041 -0.357742 0 -0.310378 -0.381967 0 -0.313052 -0.355704 0 
-0.287524 -0.382353 0 -0.289799 -0.355602 0 -0.266866 -0.356735 0 
-0.264767 -0.383553 0 -0.241469 -0.385748 0 -0.219803 -0.361258 0 
-0.217798 -0.387025 0 -0.243516 -0.359798 0 -0.193538 -0.388942 0 
-0.16847 -0.39079 0 -0.170768 -0.366578 0 -0.195654 -0.363929 0 
-0.143046 -0.391334 0 -0.12012 -0.367004 0 -0.1176 -0.390963 0 
-0.145495 -0.367342 0 -0.0921693 -0.390541 0 -0.069282 -0.365908 0 
-0.0669035 -0.389812 0 -0.0946667 -0.366726 0 -0.0154886 -0.391348 0 
-0.0175684 -0.368073 0 -0.0436425 -0.366855 0 -0.0414162 -0.390436 0 
0.0350985 -0.350076 0 0.038522 -0.394569 0 0.0088652 -0.370029 0 
0.0359646 -0.372446 0 0.0111596 -0.392753 0 0.0933466 -0.394097 0 
0.0631896 -0.372507 0 0.0660306 -0.394643 0 0.0622847 -0.350196 0 
0.0904111 -0.371933 0 0.144539 -0.368401 0 0.117508 -0.370656 0 
0.146818 -0.390995 0 0.120401 -0.393011 0 0.19921 -0.38958 0 
0.199116 -0.367174 0 0.172953 -0.389666 0 0.171718 -0.367017 0 
0.22649 -0.366699 0 0.225504 -0.389343 0 0.29956 -0.388163 0 
0.278605 -0.362101 0 0.275912 -0.387156 0 0.25129 -0.388264 0 
0.253225 -0.364655 0 0.302474 -0.362654 0 0.323442 -0.388719 0 
0.347369 -0.387307 0 0.325879 -0.363179 0 0.349277 -0.361388 0 
0.394517 -0.38612 0 0.372531 -0.362041 0 0.395802 -0.359907 0 
0.371036 -0.387576 0 0.44185 -0.386931 0 0.417928 -0.387339 0 
0.418982 -0.36194 0 0.442804 -0.361608 0 0.465174 -0.385218 0 
0.465941 -0.358558 0 0.488694 -0.364101 0 0.48843 -0.389296 0 
0.5125 -0.3875 0 0.5375 -0.3875 0 0.5375 -0.3625 0 
0.5125 -0.3625 0 -0.5375 -0.3125 0 -0.5125 -0.3375 0 
-0.5375 -0.3375 0 -0.5125 -0.3125 0 -0.468301 -0.32235 0 
-0.48866 -0.336022 0 -0.488608 -0.308342 0 -0.448167 -0.305604 0 
-0.424935 -0.329913 0 -0.403884 -0.322866 0 -0.447123 -0.333867 0 
-0.426586 -0.30208 0 -0.379619 -0.341894 0 -0.382506 -0.314614 0 
-0.360055 -0.323515 0 -0.339531 -0.302433 0 -0.315665 -0.329806 0 
-0.316613 -0.304094 0 -0.338611 -0.330412 0 -0.291961 -0.329373 0 
-0.292607 -0.303634 0 -0.269073 -0.303573 0 -0.268701 -0.330018 0 
-0.220857 -0.310343 0 -0.221086 -0.33566 0 -0.245258 -0.309008 0 
-0.245113 -0.334097 0 -0.171529 -0.318138 0 -0.196479 -0.314246 0 
-0.171949 -0.34231 0 -0.196792 -0.338944 0 -0.121325 -0.343054 0 
-0.120771 -0.319094 0 -0.146247 -0.319232 0 -0.1467 -0.343287 0 
-0.0957682 -0.342996 0 -0.0701249 -0.342159 0 -0.0951707 -0.319383 0 
-0.0691425 -0.318848 0 -0.0442005 -0.34352 0 -0.0178904 -0.344892 0 
-0.0158392 -0.322164 0 -0.0426876 -0.32071 0 0.00850644 -0.347053 0 
0.0127724 -0.302161 0 0.0110617 -0.32449 0 0.038087 -0.327933 0 
0.0398491 -0.305944 0 0.093257 -0.328047 0 0.0655651 -0.328044 0 
0.0938772 -0.305879 0 0.0896372 -0.349836 0 0.0670469 -0.305766 0 
0.147969 -0.323941 0 0.145265 -0.346292 0 0.120912 -0.326489 0 
0.146874 -0.301024 0 0.117471 -0.348556 0 0.120643 -0.303954 0 
0.19936 -0.300101 0 0.174695 -0.322588 0 0.172819 -0.344956 0 
0.227746 -0.344445 0 0.228465 -0.321975 0 0.201431 -0.323117 0 
0.200384 -0.345265 0 0.280292 -0.337457 0 0.254574 -0.341607 0 
0.280158 -0.31351 0 0.25471 -0.31836 0 0.306479 -0.312566 0 
0.328152 -0.33729 0 0.304472 -0.33712 0 0.330039 -0.311009 0 
0.398761 -0.307383 0 0.351062 -0.334802 0 0.397098 -0.333593 0 
0.352642 -0.307797 0 0.375375 -0.310335 0 0.373861 -0.336234 0 
0.445126 -0.310493 0 0.44389 -0.336201 0 0.42021 -0.336413 0 
0.421748 -0.310699 0 0.488943 -0.338409 0 0.489175 -0.312163 0 
0.467583 -0.303388 0 0.466744 -0.331301 0 0.5125 -0.3125 0 
0.5375 -0.3125 0 0.5125 -0.3375 0 0.5375 -0.3375 0 
-0.5375 -0.2875 0 -0.5125 -0.2625 0 -0.5375 -0.2625 0 
-0.5125 -0.2875 0 -0.465067 -0.258616 0 -0.487996 -0.281957 0 
-0.487541 -0.257076 0 -0.466659 -0.29058 0 -0.447615 -0.274856 0 
-0.426084 -0.274589 0 -0.403826 -0.265598 0 -0.404898 -0.294257 0 
-0.381616 -0.260464 0 -0.382704 -0.287516 0 -0.359499 -0.266089 0 
-0.360817 -0.294689 0 -0.316178 -0.278387 0 -0.338789 -0.274382 0 
-0.316014 -0.252477 0 -0.268552 -0.277218 0 -0.292169 -0.27808 0 
-0.292359 -0.252537 0 -0.268364 -0.251342 0 -0.218534 -0.26018 0 
-0.243657 -0.26035 0 -0.220031 -0.285136 0 -0.244702 -0.284447 0 
-0.193964 -0.265441 0 -0.195678 -0.289705 0 -0.168886 -0.270545 0 
-0.170697 -0.294176 0 -0.11694 -0.271436 0 -0.119449 -0.29524 0 
-0.145096 -0.295345 0 -0.143014 -0.271861 0 -0.0913845 -0.27257 0 
-0.0936989 -0.295945 0 -0.0675028 -0.295797 0 -0.0650269 -0.272953 0 
-0.06188 -0.250351 0 -0.0121645 -0.276739 0 -0.00918528 -0.253208 0 
-0.035381 -0.252985 0 -0.0385889 -0.275778 0 -0.0410117 -0.298234 0 
-0.0140902 -0.299669 0 0.0416382 -0.260442 0 0.039774 -0.283257 0 
0.0137038 -0.279117 0 0.0161907 -0.255371 0 0.0955639 -0.260405 0 
0.092687 -0.283406 0 0.0699696 -0.260079 0 0.0658158 -0.282805 0 
0.118898 -0.280688 0 0.123371 -0.257604 0 0.144434 -0.277776 0 
0.17289 -0.299523 0 0.171981 -0.277009 0 0.186502 -0.256691 0 
0.155328 -0.256924 0 0.225061 -0.299347 0 0.200206 -0.278045 0 
0.216431 -0.259982 0 0.248371 -0.259167 0 0.231976 -0.278095 0 
0.290381 -0.265418 0 0.25284 -0.29642 0 0.284704 -0.291427 0 
0.264739 -0.276938 0 0.334659 -0.258369 0 0.311974 -0.258683 0 
[...]
POINT_DATA 2798
SCALARS id float
LOOKUP_TABLE default
2620 2601 2600 2621 2640 2643 2641 2642 2647 
2644 2646 2645 2651 2650 2649 2648 2655 2654 
2653 2652 2657 2658 2659 2656 2660 2662 2661 
2663 2666 2664 2667 2665 2669 2668 2671 2670 
2675 2674 2673 2672 2678 2681 2679 2676 2677 
2680 2682 2683 2685 2684 2687 2689 2686 2688 
2690 2691 2692 2693 2695 2696 2697 2694 2700 
2701 2699 2698 2705 2704 2702 2703 2706 2708 
2709 2707 2711 2713 2712 2710 2714 2715 2716 
2717 2721 2720 2719 2718 2722 2742 2723 2743 
2623 2622 2602 2603 1660 1678 1661 1679 1715 
1714 1697 1696 1769 1733 1750 1732 1768 1751 
1787 1804 1786 1805 1841 1823 1822 1840 1877 
1876 1858 1859 1895 1912 1913 1894 1948 1949 
1931 1930 1985 1984 1966 1967 2003 2020 2002 
2021 2038 2056 2039 2057 2074 2093 2075 2092 
2111 2129 2110 2128 2165 2147 2164 2146 2200 
2183 2201 2182 2218 2237 2236 2219 2272 2255 
2273 2254 2290 2309 2291 2308 2344 2326 2327 
2345 2381 2380 2362 2363 2725 2724 2744 2745 
2625 2624 2604 2605 1680 1681 1663 1662 1717 
1716 1698 1699 1770 1735 1752 1771 1734 1788 
1789 1806 1807 1824 1825 1843 1842 1860 1879 
1878 1861 1896 1914 1915 1897 1932 1951 1950 
1933 1968 1987 1986 1969 2022 2023 2005 2004 
2060 2058 2041 2059 2040 2094 2077 2076 2078 
2095 2131 2113 2130 2112 2166 2167 2148 2149 
2185 2184 2238 2221 2220 2202 2203 2239 2256 
2274 2257 2275 2310 2293 2311 2292 2346 2328 
2329 2347 2364 2365 2383 2382 2726 2746 2747 
2727 2607 2626 2606 2627 1682 1664 1665 1701 
1718 1736 1700 1719 1753 1754 1772 1791 1808 
1809 1790 1826 1827 1845 1844 1881 1880 1863 
1862 1917 1899 1916 1898 1952 1953 1935 1934 
1970 1988 1971 1989 2006 2024 2025 2007 2042 
2044 2043 2061 2062 2097 2079 2098 2096 2080 
2133 2132 2115 2134 2114 2116 2170 2151 2150 
2186 2187 2169 2168 2222 2204 2223 2205 2241 
2258 2240 2259 2313 2276 2312 2277 2295 2294 
2349 2348 2330 2331 2384 2385 2367 2366 2729 
2749 2728 2748 2608 2629 2609 2628 1684 1666 
1667 1683 1702 1720 1738 1737 1756 1755 1774 
1773 1810 1792 1811 1846 1828 1829 1847 1883 
1865 1882 1864 1901 1900 1919 1918 1955 1954 
1936 1937 1973 1972 1990 1991 1992 2027 2028 
2010 2009 2008 2026 2064 2063 2045 2046 2100 
2099 2082 2081 2117 2118 2135 2152 2153 2154 
2136 2188 2171 2172 2190 2189 2225 2206 2224 
2207 2261 2243 2242 2260 2278 2297 2279 2296 
2315 2350 2332 2333 2314 2351 2386 2387 2368 
2731 2751 2750 2730 2631 2630 2610 2611 1668 
1685 1669 1740 1722 1703 1704 1739 1721 1758 
1757 1776 1775 1793 1812 1794 1848 1831 1830 
1885 1884 1866 1867 1902 1921 1903 1920 1938 
1939 1957 1956 1976 1975 1994 1993 1974 2029 
2030 2012 2011 2048 2066 2047 2065 2102 2084 
2083 2119 2103 2101 2104 2137 2120 2138 2121 
2173 2155 2174 2156 2139 2191 2209 2208 2226 
2263 2244 2262 2227 2245 2280 2299 2298 2334 
2316 2335 2388 2352 2369 2370 2732 2753 2752 
2733 2612 2613 2633 2632 1670 1686 1687 1705 
1742 1741 1724 1723 1777 1760 1778 1759 1813 
1796 1795 1814 1850 1849 1832 1886 1887 1869 
1905 1868 1904 1924 1941 1922 1923 1958 1959 
1940 1942 1995 1977 1978 1960 2014 1996 2013 
2032 2031 2049 2015 1997 2067 2068 2085 2050 
2088 2086 2087 2106 2122 2071 2105 2158 2140 
2157 2123 2176 2210 2193 2175 2192 2228 2211 
2229 2246 2265 2282 2264 2281 2300 2336 2317 
2353 2354 2389 2371 2390 2735 2755 2754 2734 
2635 2614 2615 2634 1672 1689 1688 1671 1706 
1725 1743 1744 1707 1780 1761 1779 1762 1797 
1798 1815 1833 1816 1851 1870 1834 1852 1872 
1853 1871 1888 1925 1906 1889 1890 1907 1943 
1909 1926 1908 1944 1927 1874 1856 1945 1962 
1961 1979 1910 1892 1999 1963 1980 1981 1998 
1982 2016 2017 2033 2034 2070 2069 2051 2052 
2053 2089 2035 2036 2141 2107 2177 2124 2159 
2195 2230 2194 2212 2247 2266 2267 2248 2283 
2301 2337 2318 2284 2372 2373 2391 2355 2736 
2756 2757 2737 2636 2637 2617 2616 1691 1673 
1674 1690 1727 1709 1726 1708 1763 1764 1745 
1746 1799 1781 1782 1835 1817 1783 1800 1748 
1854 1818 1836 1855 1819 1801 1767 1731 1873 
1891 1837 1785 1802 80 1749 160 100 1820 
40 1541 1803 1561 1928 1946 1838 120 1964 
1481 1839 1 1857 140 2000 180 21 1821 
1893 280 1929 2054 1875 1911 340 320 2125 
2072 2018 2142 2213 2090 2160 2143 2231 2196 
2178 2302 2319 2232 2214 2285 2249 2320 2356 
2338 2392 2739 2738 2759 2758 2567 2564 2566 
2565 2571 2570 2569 2568 2573 2574 2575 2572 
2577 2579 2576 2578 2580 2583 2582 2581 2587 
2584 2586 2585 2589 2590 2591 2588 2593 2592 
2595 2594 2597 2596 2599 2598 2638 2619 2618 
2639 1710 1677 1675 1676 1692 1711 1728 1340 
1695 1360 1694 1729 1693 1765 1730 1480 1747 
1500 1712 1420 1440 1766 1784 1460 1241 1201 
1520 1560 1540 1713 1281 1580 1261 1222 1600 
1301 1361 1321 1341 60 1282 20 1521 1620 
1421 1381 0 1640 1441 1362 1542 1461 1522 
1581 1543 1502 1601 1523 220 1562 1621 240 
260 1641 1582 300 200 1947 181 161 201 
2161 2179 2108 2233 2215 2250 2339 2374 2303 
2268 2741 2760 2740 2761 2765 2762 2763 2764 
2766 2768 2769 2767 2772 2773 2771 2770 2777 
2776 2775 2774 2779 2780 2781 2778 2782 2784 
2785 2783 2787 2789 2786 2788 2792 2790 2793 
2791 2797 2794 2795 2796 2271 660 2307 840 
2325 740 800 700 720 2378 2361 2343 860 
621 2379 2289 761 780 1020 2397 820 721 
681 1060 1100 880 900 1080 1140 1120 762 
920 980 1180 1160 960 940 1200 861 1220 
881 1001 1240 1000 921 1040 1280 1260 1320 
1041 1300 981 1380 1061 1101 1081 1121 1021 
1102 1062 1400 1082 1161 1141 1063 1181 1142 
1122 1221 1162 1202 1182 1183 1163 1203 1184 
1242 1223 1262 1322 1243 1302 1263 1283 1401 
1342 1343 1363 1402 1382 1442 1422 1383 1482 
1403 1501 1462 1483 1463 1544 1423 1563 1602 
1503 1564 61 1642 41 162 121 42 81 
141 2144 2126 1965 102 2198 2197 182 2162 
2180 2357 2251 2216 2055 2393 2321 2304 2234 
2252 2287 2305 2375 2109 2358 2323 2340 2270 
2376 2359 2394 2163 2306 2341 2395 2360 2235 
640 2342 2324 2217 2199 2377 680 2396 2253 
461 441 481 402 462 442 443 422 501 
541 521 561 542 482 522 523 581 601 
582 641 701 583 602 760 642 661 702 
722 662 643 682 703 781 801 683 821 
741 742 841 782 763 783 802 822 803 
842 901 862 843 823 941 882 961 902 
922 942 903 1002 923 963 943 982 962 
983 1003 1022 1042 1024 1043 1023 1044 1103 
1084 1083 1064 1123 1124 1104 1143 1144 1145 
1185 1164 1165 1204 1225 1224 1205 1303 1264 
1244 1245 1284 1304 1344 1323 1324 1365 1364 
1345 1385 1384 1404 1484 1443 1464 1524 1424 
1584 1545 1583 1622 1623 1603 2 82 101 
122 1983 83 103 142 3 143 2037 84 
360 163 2001 2019 123 2073 380 440 2286 
400 2091 2322 420 480 460 281 261 2269 
500 520 341 2127 321 262 2288 282 302 
2181 580 540 2145 560 342 362 600 401 
421 363 620 345 365 383 382 403 404 
424 423 464 483 463 444 484 503 502 
504 562 544 563 543 622 545 584 565 
564 623 624 604 603 664 644 663 645 
665 704 685 684 723 743 705 744 725 
724 745 784 765 764 804 824 785 805 
845 844 864 883 825 863 885 865 904 
884 944 905 924 925 945 984 964 965 
985 1025 1005 1004 1046 1045 1065 1066 1086 
1085 1105 1106 1125 1166 1126 1146 1186 1187 
1207 1206 1227 1265 1246 1226 1266 1305 1286 
1285 1366 1306 1325 1326 1346 1406 1386 1367 
1405 1444 1425 1445 1466 1504 1465 1525 1486 
1485 1505 1546 1565 1624 1605 1643 1585 1604 
22 1625 1644 4 23 62 63 43 24 
45 44 64 25 104 85 124 144 65 
241 183 221 105 202 222 203 184 242 
224 301 204 223 243 205 263 225 283 
244 361 264 304 303 381 322 323 343 
364 324 344 366 384 346 326 385 406 
386 405 425 446 445 426 465 466 485 
486 505 506 524 525 526 566 567 546 
585 605 606 586 626 647 625 646 686 
667 687 666 707 726 706 727 747 767 
746 766 806 786 807 787 827 846 826 
847 886 866 867 887 926 927 906 907 
946 967 966 947 986 1006 1027 1026 987 
1007 1067 1048 1068 1047 1087 1108 1107 1088 
1127 1148 1128 1147 1209 1188 1208 1167 1168 
1247 1248 1229 1228 1268 1287 1267 1288 1348 
1307 1308 1347 1328 1327 1388 1387 1368 1447 
1426 1446 1427 1407 1487 1467 1468 1448 1507 
1547 1526 1527 1506 1567 1586 1566 1548 1607 
1626 1606 1587 1646 5 1647 1645 6 7 
47 27 26 46 66 67 86 145 106 
125 126 165 146 147 164 167 166 185 
187 206 186 207 246 226 265 245 227 
266 285 286 284 325 306 305 348 367 
347 368 409 388 387 408 407 427 428 
448 449 447 468 488 467 487 527 528 
508 507 568 548 547 587 607 588 608 
628 648 627 688 689 669 668 709 729 
708 728 769 768 749 748 789 808 788 
809 849 829 848 828 889 868 869 888 
929 928 908 909 948 968 969 949 988 
989 1009 1008 1029 1028 1049 1070 1069 1089 
1110 1109 1090 1149 1130 1129 1150 1210 1169 
1190 1189 1231 1230 1249 1250 1269 1270 1290 
1289 1329 1310 1350 1349 1330 1309 1389 1370 
1369 1390 1428 1429 1409 1408 1449 1450 1469 
1488 1529 1509 1508 1528 1489 1549 1569 1568 
1588 1589 1608 1609 1627 1649 1648 1629 1628 
28 29 9 8 87 49 48 68 69 
88 89 107 109 127 128 129 108 169 
148 149 168 208 188 209 189 247 249 
248 229 228 267 287 288 268 307 308 
327 328 350 369 370 349 410 389 390 
411 430 429 451 450 489 469 470 490 
529 509 530 510 549 569 570 550 551 
589 609 610 590 630 629 649 650 651 
691 690 671 670 730 710 731 711 770 
751 750 771 790 810 811 791 830 831 
850 851 871 870 891 890 910 911 930 
931 951 950 971 970 1010 1030 1031 1011 
991 990 1050 1051 1071 1092 1091 1111 1112 
1131 1132 1151 1152 1211 1191 1170 1212 1171 
1251 1252 1232 1271 1292 1291 1272 1312 1311 
1351 1331 1371 1372 1391 1410 1430 1411 1431 
1451 1471 1470 1510 1491 1511 1490 1571 1531 
1550 1551 1570 1530 1591 1590 1611 1610 1630 
1631 1651 1650 11 10 30 31 50 51 
71 91 70 90 111 130 131 110 170 
171 151 150 191 211 231 210 190 230 
250 251 290 269 289 270 329 309 330 
310 372 373 371 392 391 412 432 433 
413 472 452 431 453 473 491 513 512 
492 493 471 532 553 533 511 531 552 
573 572 571 611 591 592 612 653 632 
652 631 673 672 693 692 713 732 733 
712 773 752 772 753 833 792 793 813 
812 832 852 873 853 872 893 892 913 
912 932 952 933 953 993 973 972 992 
1012 1013 1032 1033 1073 1053 1052 1072 1093 
1113 1153 1134 1173 1154 1133 1172 1192 1193 
1213 1233 1254 1253 1234 1313 1273 1293 1352 
1333 1332 1353 1374 1392 1373 1393 1432 1412 
1433 1413 1452 1453 1473 1472 1513 1492 1493 
1512 1533 1532 1573 1572 1552 1553 1613 1592 
1593 1612 1632 1653 1652 1633 13 12 32 
33 73 52 72 53 113 112 93 92 
133 153 132 152 173 192 193 172 233 
213 232 212 273 271 253 252 272 312 
291 293 292 311 313 352 333 351 353 
332 331 395 393 394 374 375 415 414 
435 434 474 475 455 454 495 494 514 
515 535 534 554 555 575 593 574 594 
595 615 614 635 634 613 633 674 675 
655 654 695 694 715 734 755 735 714 
754 795 774 775 794 815 814 834 835 
875 854 874 855 915 894 895 914 955 
935 954 934 975 974 995 994 1014 1035 
1034 1015 1054 1055 1074 1075 1094 1115 1095 
1136 1114 1175 1174 1155 1135 1194 1215 1195 
1214 1235 1255 1236 1295 1275 1274 1294 1314 
1315 1334 1355 1335 1354 1395 1394 1375 1435 
1415 1434 1414 1495 1475 1454 1474 1455 1534 
1494 1515 1514 1535 1554 1575 1555 1574 1595 
1614 1615 1594 1635 1634 1654 1655 14 15 
35 34 55 54 75 74 94 115 114 
95 154 135 155 134 194 174 195 175 
234 235 214 215 255 275 254 274 295 
294 315 314 335 355 334 354 397 396 
417 376 416 437 436 476 457 456 477 
497 496 516 517 556 536 537 557 576 
577 596 597 616 617 637 636 657 676 
656 677 696 697 717 716 737 736 757 
756 776 796 777 797 817 837 836 816 
876 856 877 857 896 897 917 916 957 
936 956 937 996 977 997 976 1016 1036 
1037 1017 1057 1076 1077 1056 1096 1117 1116 
1137 1097 1157 1177 1176 1156 1196 1197 1217 
1216 1257 1256 1237 1277 1276 1316 1296 1317 
1297 1356 1336 1357 1337 1377 1376 1396 1397 
1437 1436 1416 1457 1417 1497 1496 1456 1477 
1476 1517 1516 1537 1536 1576 1557 1577 1556 
1597 1596 1617 1616 1637 1656 1657 1636 17 
37 36 16 57 77 56 76 97 96 
116 117 137 136 157 156 177 176 216 
217 196 197 256 237 257 236 277 276 
297 296 337 317 316 336 356 377 357 
478 819 458 799 839 859 518 498 899 
538 879 558 578 598 939 919 959 979 
618 638 658 1019 999 1039 678 1059 698 
738 1079 1119 1099 718 1139 758 778 1159 
1179 798 818 1199 1239 1219 838 858 878 
1279 898 918 1259 1299 958 1319 938 1339 
1359 1379 998 978 1038 1018 1399 1419 1439 
1058 1459 1078 1499 1118 1098 1479 1519 1138 
1559 1539 1158 1178 1579 1198 1599 1218 1619 
1639 1238 1258 1278 19 1298 1659 1318 1358 
79 59 1338 39 1398 1378 99 119 1418 
1438 159 139 179 199 1478 1498 1458 1538 
239 219 1518 1578 1558 259 279 319 1598 
1618 299 1638 1658 359 339 18 379 399 
38 419 78 439 58 459 118 479 98 
138 158 519 499 539 198 559 178 238 
599 579 258 218 619 639 278 298 318 
659 679 719 338 699 358 378 398 739 
759 779 418 438 2399 2401 2398 2400 2402 
2405 2403 2404 2406 2408 2407 2409 2412 2413 
2411 2410 2416 2417 2415 2414 2418 2420 2421 
2419 2425 2427 2424 2426 2422 2423 2428 2430 
2431 2429 2432 2435 2433 2434 2438 2436 2439 
2437 2441 2440 2442 2443 2447 2444 2445 2446 
2449 2448 2450 2451 2455 2454 2452 2453 2457 
2459 2458 2456 2463 2461 2460 2462 2465 2467 
2466 2464 2469 2468 2470 2471 2472 2473 2475 
2474 2479 2480 2477 2476 2481 2478 2485 2484 
2483 2482 2489 2486 2488 2487 2493 2492 2490 
2491 2497 2496 2495 2494 2501 2498 2500 2499 
2505 2503 2504 2502 2509 2508 2507 2506 2511 
2512 2513 2510 2516 2514 2515 2517 2520 2519 
2518 2521 2524 2525 2522 2523 2527 2528 2529 
2526 2530 2531 2532 2533 2534 2535 2536 2537 
2538 2539 2540 2541 2543 2542 2544 2545 2546 
2547 2548 2551 2550 2549 2554 2555 2553 2552 
2558 2556 2557 2559 2560 2561 2562 2563 
FIELD FieldData 7
r 3 2798 float
-0.5125 -0.4875 0 -0.5375 -0.4625 0 -0.5375 -0.4875 0 
-0.5125 -0.4625 0 -0.487805 -0.4875 0 -0.463415 -0.4625 0 
-0.487805 -0.4625 0 -0.463415 -0.4875 0 -0.414634 -0.4625 0 
-0.439024 -0.4875 0 -0.414634 -0.4875 0 -0.439024 -0.4625 0 
-0.365854 -0.4625 0 -0.365854 -0.4875 0 -0.390244 -0.4625 0 
-0.390244 -0.4875 0 -0.317073 -0.4625 0 -0.317073 -0.4875 0 
-0.341463 -0.4625 0 -0.341463 -0.4875 0 -0.292683 -0.4625 0 
-0.268293 -0.4875 0 -0.268293 -0.4625 0 -0.292683 -0.4875 0 
-0.243902 -0.4875 0 -0.219512 -0.4875 0 -0.243902 -0.4625 0 
-0.219512 -0.4625 0 -0.170732 -0.4875 0 -0.195122 -0.4875 0 
-0.170732 -0.4625 0 -0.195122 -0.4625 0 -0.146341 -0.4625 0 
-0.146341 -0.4875 0 -0.121951 -0.4625 0 -0.121951 -0.4875 0 
-0.0731707 -0.4625 0 -0.0731707 -0.4875 0 -0.097561 -0.4625 0 
-0.097561 -0.4875 0 -0.0243903 -0.4875 0 -1.86265e-08 -0.4625 0 
-0.0243903 -0.4625 0 -0.0487805 -0.4875 0 -0.0487805 -0.4625 0 
-1.86265e-08 -0.4875 0 0.0243902 -0.4875 0 0.0243902 -0.4625 0 
0.0487805 -0.4625 0 0.0487805 -0.4875 0 0.0731707 -0.4625 0 
0.097561 -0.4625 0 0.0731707 -0.4875 0 0.097561 -0.4875 0 
0.121951 -0.4875 0 0.121951 -0.4625 0 0.146341 -0.4875 0 
0.146341 -0.4625 0 0.170732 -0.4625 0 0.195122 -0.4875 0 
0.195122 -0.4625 0 0.170732 -0.4875 0 0.243902 -0.4875 0 
0.243902 -0.4625 0 0.219512 -0.4625 0 0.219512 -0.4875 0 
0.292683 -0.4625 0 0.292683 -0.4875 0 0.268293 -0.4875 0 
0.268293 -0.4625 0 0.317073 -0.4875 0 0.341463 -0.4875 0 
0.341463 -0.4625 0 0.317073 -0.4625 0 0.365854 -0.4625 0 
0.390244 -0.4625 0 0.390244 -0.4875 0 0.365854 -0.4875 0 
0.414634 -0.4875 0 0.414634 -0.4625 0 0.439024 -0.4875 0 
0.439024 -0.4625 0 0.487805 -0.4625 0 0.487805 -0.4875 0 
0.463415 -0.4625 0 0.463415 -0.4875 0 0.5125 -0.4875 0 
0.5375 -0.4875 0 0.5125 -0.4625 0 0.5375 -0.4625 0 
-0.5125 -0.4125 0 -0.5125 -0.4375 0 -0.5375 -0.4375 0 
-0.5375 -0.4125 0 -0.487926 -0.437636 0 -0.464184 -0.436172 0 
-0.487908 -0.412554 0 -0.464417 -0.409264 0 -0.417342 -0.410143 0 
-0.41689 -0.436409 0 -0.441021 -0.412143 0 -0.440581 -0.437548 0 
-0.353669 -0.411646 0 -0.394857 -0.409153 0 -0.373138 -0.432189 0 
-0.393737 -0.436946 0 -0.351481 -0.438443 0 -0.374726 -0.40123 0 
-0.330889 -0.410128 0 -0.305744 -0.436059 0 -0.327985 -0.436224 0 
-0.307873 -0.408649 0 -0.262582 -0.410206 0 -0.285371 -0.409414 0 
-0.283447 -0.436488 0 -0.260668 -0.436766 0 -0.215348 -0.412546 0 
-0.213028 -0.437685 0 -0.237218 -0.437387 0 -0.239213 -0.411654 0 
-0.190794 -0.413652 0 -0.162521 -0.438397 0 -0.165484 -0.414754 0 
-0.188123 -0.438035 0 -0.110422 -0.438382 0 -0.114071 -0.414786 0 
-0.139779 -0.415107 0 -0.136495 -0.438528 0 -0.0633884 -0.413875 0 
-0.0595889 -0.43808 0 -0.0847876 -0.438193 0 -0.0885514 -0.414356 0 
-0.0381913 -0.414267 0 -0.00890795 -0.438259 0 -0.0343453 -0.438198 0 
-0.0125195 -0.414682 0 0.0169487 -0.438478 0 0.0434359 -0.438907 0 
0.0138329 -0.415458 0 0.0409372 -0.416615 0 0.0701796 -0.438884 0 
0.0956531 -0.416241 0 0.0683364 -0.416656 0 0.0967483 -0.43873 0 
0.122497 -0.415588 0 0.148558 -0.414256 0 0.122929 -0.43856 0 
0.148409 -0.438074 0 0.198922 -0.413145 0 0.173891 -0.413311 0 
0.197497 -0.43769 0 0.173176 -0.43775 0 0.245942 -0.437629 0 
0.223882 -0.413054 0 0.248593 -0.412697 0 0.221736 -0.437674 0 
0.27004 -0.437625 0 0.296641 -0.413326 0 0.294378 -0.437962 0 
0.272723 -0.412483 0 0.34367 -0.437666 0 0.321102 -0.413564 0 
0.345552 -0.412665 0 0.319134 -0.437997 0 0.367893 -0.43787 0 
0.393255 -0.411949 0 0.36951 -0.412877 0 0.391955 -0.437415 0 
0.440026 -0.437505 0 0.41589 -0.43764 0 0.416966 -0.412566 0 
0.440935 -0.412231 0 0.488133 -0.41406 0 0.487944 -0.438374 0 
0.46379 -0.437223 0 0.464439 -0.411436 0 0.5125 -0.4125 0 
0.5125 -0.4375 0 0.5375 -0.4375 0 0.5375 -0.4125 0 
-0.5125 -0.3625 0 -0.5125 -0.3875 0 -0.5375 -0.3875 0 
-0.5375 -0.3625 0 -0.464958 -0.381741 0 -0.466266 -0.353067 0 
-0.488167 -0.362114 0 -0.487964 -0.387471 0 -0.421123 -0.356879 0 
-0.418541 -0.383682 0 -0.441911 -0.386714 0 -0.443768 -0.360853 0 
-0.355867 -0.383042 0 -0.399874 -0.351488 0 -0.376857 -0.370831 0 
-0.357909 -0.353361 0 -0.396684 -0.380478 0 -0.333509 -0.384167 0 
-0.336041 -0.357742 0 -0.310378 -0.381967 0 -0.313052 -0.355704 0 
-0.287524 -0.382353 0 -0.289799 -0.355602 0 -0.266866 -0.356735 0 
-0.264767 -0.383553 0 -0.241469 -0.385748 0 -0.219803 -0.361258 0 
-0.217798 -0.387025 0 -0.243516 -0.359798 0 -0.193538 -0.388942 0 
-0.16847 -0.39079 0 -0.170768 -0.366578 0 -0.195654 -0.363929 0 
-0.143046 -0.391334 0 -0.12012 -0.367004 0 -0.1176 -0.390963 0 
-0.145495 -0.367342 0 -0.0921693 -0.390541 0 -0.069282 -0.365908 0 
-0.0669035 -0.389812 0 -0.0946667 -0.366726 0 -0.0154886 -0.391348 0 
-0.0175684 -0.368073 0 -0.0436425 -0.366855 0 -0.0414162 -0.390436 0 
0.0350985 -0.350076 0 0.038522 -0.394569 0 0.0088652 -0.370029 0 
0.0359646 -0.372446 0 0.0111596 -0.392753 0 0.0933466 -0.394097 0 
0.0631896 -0.372507 0 0.0660306 -0.394643 0 0.0622847 -0.350196 0 
0.0904111 -0.371933 0 0.144539 -0.368401 0 0.117508 -0.370656 0 
0.146818 -0.390995 0 0.120401 -0.393011 0 0.19921 -0.38958 0 
0.199116 -0.367174 0 0.172953 -0.389666 0 0.171718 -0.367017 0 
0.22649 -0.366699 0 0.225504 -0.389343 0 0.29956 -0.388163 0 
0.278605 -0.362101 0 0.275912 -0.387156 0 0.25129 -0.388264 0 
0.253225 -0.364655 0 0.302474 -0.362654 0 0.323442 -0.388719 0 
0.347369 -0.387307 0 0.325879 -0.363179 0 0.349277 -0.361388 0 
0.394517 -0.38612 0 0.372531 -0.362041 0 0.395802 -0.359907 0 
0.371036 -0.387576 0 0.44185 -0.386931 0 0.417928 -0.387339 0 
0.418982 -0.36194 0 0.442804 -0.361608 0 0.465174 -0.385218 0 
0.465941 -0.358558 0 0.488694 -0.364101 0 0.48843 -0.389296 0 
0.5125 -0.3875 0 0.5375 -0.3875 0 0.5375 -0.3625 0 
0.5125 -0.3625 0 -0.5375 -0.3125 0 -0.5125 -0.3375 0 
-0.5375 -0.3375 0 -0.5125 -0.3125 0 -0.468301 -0.32235 0 
-0.48866 -0.336022 0 -0.488608 -0.308342 0 -0.448167 -0.305604 0 
-0.424935 -0.329913 0 -0.403884 -0.322866 0 -0.447123 -0.333867 0 
-0.426586 -0.30208 0 -0.379619 -0.341894 0 -0.382506 -0.314614 0 
-0.360055 -0.323515 0 -0.339531 -0.302433 0 -0.315665 -0.329806 0 
-0.316613 -0.304094 0 -0.338611 -0.330412 0 -0.291961 -0.329373 0 
-0.292607 -0.303634 0 -0.269073 -0.303573 0 -0.268701 -0.330018 0 
-0.220857 -0.310343 0 -0.221086 -0.33566 0 -0.245258 -0.309008 0 
-0.245113 -0.334097 0 -0.171529 -0.318138 0 -0.196479 -0.314246 0 
-0.171949 -0.34231 0 -0.196792 -0.338944 0 -0.121325 -0.343054 0 
-0.120771 -0.319094 0 -0.146247 -0.319232 0 -0.1467 -0.343287 0 
-0.0957682 -0.342996 0 -0.0701249 -0.342159 0 -0.0951707 -0.319383 0 
-0.0691425 -0.318848 0 -0.0442005 -0.34352 0 -0.0178904 -0.344892 0 
-0.0158392 -0.322164 0 -0.0426876 -0.32071 0 0.00850644 -0.347053 0 
0.0127724 -0.302161 0 0.0110617 -0.32449 0 0.038087 -0.327933 0 