# vtk DataFile Version 4.0
vtk output
ASCII
DATASET POLYDATA
FIELD FieldData 4
domain 1 3 string
domain_min:-20|-15
domain_max:20|15
cell_size:0.05

variables 1 2 string
dt:0.000372678
T:0.412565

constants 1 10 string
xsize:2
ysize:1
csize:0.05
dx:0.0238095
h:0.025
rho0:1000
mass:0.566894
g:1|0
c:13.4164
CFL:0.2

functions 1 8 string
time:T=(T+dt)
continuity:rho_dot=((-(rho*sph_D00(v,mass,rho,Wp52220)))+(((0.1*c)*h)*sph_L00(rho,mass,rho,Wp52220)))
irho:rho=(rho+int1((rho_dot,dt))
EOS:p=(((c^2)*(rho-rho0))+10000)
euler:a=if((gid,(0*v),(((-((1/rho)*sph_G11(p,mass,rho,Wp52220)))+(0.01*sph_L00(v,mass,rho,Wp52220)))+g))
vel:v=(v+int1((a,dt))
pos:r=(r+int1((v,dt))
new_dt:dt=(CFL*min((sqrt(((h/fmax(magnitude((a)))),(h/c)))

POINTS 2798 float
-0.5375 -0.4625 0 -0.5375 -0.4875 0 -0.5125 -0.4625 0 
-0.5125 -0.4875 0 -0.487805 -0.4875 0 -0.487805 -0.4625 0 
-0.463415 -0.4875 0 -0.463415 -0.4625 0 -0.439024 -0.4875 0 
-0.414634 -0.4625 0 -0.414634 -0.4875 0 -0.439024 -0.4625 0 
-0.390244 -0.4875 0 -0.365854 -0.4875 0 -0.390244 -0.4625 0 
-0.365854 -0.4625 0 -0.317073 -0.4625 0 -0.341463 -0.4875 0 
-0.317073 -0.4875 0 -0.341463 -0.4625 0 -0.268293 -0.4625 0 
-0.292683 -0.4625 0 -0.292683 -0.4875 0 -0.268293 -0.4875 0 
-0.219512 -0.4625 0 -0.243902 -0.4625 0 -0.243902 -0.4875 0 
-0.219512 -0.4875 0 -0.170732 -0.4875 0 -0.170732 -0.4625 0 
-0.195122 -0.4625 0 -0.195122 -0.4875 0 -0.121951 -0.4875 0 
-0.121951 -0.4625 0 -0.146341 -0.4875 0 -0.146341 -0.4625 0 
-0.0731707 -0.4875 0 -0.0731707 -0.4625 0 -0.097561 -0.4875 0 
-0.097561 -0.4625 0 -1.86265e-08 -0.4875 0 -1.86265e-08 -0.4625 0 
-0.0243903 -0.4625 0 -0.0243903 -0.4875 0 -0.0487805 -0.4625 0 
-0.0487805 -0.4875 0 0.0487805 -0.4875 0 0.0487805 -0.4625 0 
0.0243902 -0.4625 0 0.0243902 -0.4875 0 0.097561 -0.4625 0 
0.0731707 -0.4625 0 0.097561 -0.4875 0 0.0731707 -0.4875 0 
0.121951 -0.4875 0 0.146341 -0.4625 0 0.146341 -0.4875 0 
0.121951 -0.4625 0 0.195122 -0.4625 0 0.170732 -0.4875 0 
0.170732 -0.4625 0 0.195122 -0.4875 0 0.219512 -0.4625 0 
0.243902 -0.4875 0 0.243902 -0.4625 0 0.219512 -0.4875 0 
0.292683 -0.4875 0 0.292683 -0.4625 0 0.268293 -0.4875 0 
0.268293 -0.4625 0 0.317073 -0.4875 0 0.341463 -0.4875 0 
0.341463 -0.4625 0 0.317073 -0.4625 0 0.365854 -0.4625 0 
0.365854 -0.4875 0 0.390244 -0.4625 0 0.390244 -0.4875 0 
0.414634 -0.4875 0 0.414634 -0.4625 0 0.439024 -0.4875 0 
0.439024 -0.4625 0 0.463415 -0.4875 0 0.463415 -0.4625 0 
0.487805 -0.4875 0 0.487805 -0.4625 0 0.5125 -0.4625 0 
0.5375 -0.4625 0 0.5125 -0.4875 0 0.5375 -0.4875 0 
-0.5375 -0.4375 0 -0.5375 -0.4125 0 -0.5125 -0.4375 0 
-0.5125 -0.4125 0 -0.463876 -0.411786 0 -0.488039 -0.412383 0 
-0.463684 -0.437273 0 -0.488048 -0.437537 0 -0.440205 -0.411203 0 
-0.41601 -0.437199 0 -0.416724 -0.411402 0 -0.439765 -0.437115 0 
-0.36884 -0.412316 0 -0.367854 -0.437505 0 -0.392037 -0.437431 0 
-0.392934 -0.412056 0 -0.319223 -0.437631 0 -0.343573 -0.437581 0 
-0.34458 -0.412523 0 -0.320233 -0.412635 0 -0.270554 -0.437639 0 
-0.271423 -0.412793 0 -0.295887 -0.412566 0 -0.294902 -0.437588 0 
-0.221485 -0.413593 0 -0.2466 -0.41345 0 -0.221107 -0.437898 0 
-0.245946 -0.437863 0 -0.196358 -0.437767 0 -0.171527 -0.413257 0 
-0.196435 -0.41326 0 -0.171736 -0.437779 0 -0.147036 -0.43786 0 
-0.146542 -0.413508 0 -0.122195 -0.437939 0 -0.1214 -0.413715 0 
-0.0973611 -0.437848 0 -0.0962425 -0.413493 0 -0.0726368 -0.437833 0 
-0.0712088 -0.413416 0 -0.0212205 -0.413442 0 -0.0231832 -0.437848 0 
-0.0479205 -0.437851 0 -0.0462127 -0.413457 0 0.00374129 -0.413389 0 
0.0262275 -0.437805 0 0.0286689 -0.413339 0 0.00153914 -0.437823 0 
0.0755748 -0.437795 0 0.0535474 -0.413329 0 0.07839 -0.413294 0 
0.0509027 -0.437807 0 0.127933 -0.413211 0 0.103191 -0.413252 0 
0.124849 -0.437782 0 0.149449 -0.437772 0 0.100223 -0.437786 0 
0.152613 -0.413163 0 0.177241 -0.413121 0 0.198562 -0.437764 0 
0.174016 -0.437764 0 0.201817 -0.413099 0 0.223092 -0.437762 0 
0.226325 -0.413049 0 0.247582 -0.437747 0 0.299244 -0.412737 0 
0.296382 -0.437702 0 0.275044 -0.412847 0 0.272014 -0.437727 0 
0.25074 -0.412952 0 0.347395 -0.412574 0 0.320682 -0.437678 0 
0.344927 -0.437666 0 0.32336 -0.412653 0 0.393266 -0.43767 0 
0.371317 -0.412449 0 0.369112 -0.437637 0 0.395131 -0.412406 0 
0.440435 -0.436937 0 0.417182 -0.437373 0 0.418573 -0.411434 0 
0.441288 -0.410327 0 0.46374 -0.437405 0 0.464195 -0.411819 0 
0.488202 -0.413808 0 0.48811 -0.438265 0 0.5375 -0.4375 0 
0.5375 -0.4125 0 0.5125 -0.4375 0 0.5125 -0.4125 0 
-0.5125 -0.3875 0 -0.5125 -0.3625 0 -0.5375 -0.3625 0 
-0.5375 -0.3875 0 -0.48808 -0.361907 0 -0.464141 -0.360256 0 
-0.464009 -0.386104 0 -0.488067 -0.387167 0 -0.44081 -0.35875 0 
-0.417509 -0.359455 0 -0.417173 -0.385457 0 -0.440523 -0.385056 0 
-0.393426 -0.386631 0 -0.393732 -0.36123 0 -0.369325 -0.387124 0 
-0.369581 -0.361955 0 -0.34504 -0.3875 0 -0.320855 -0.362728 0 
-0.320671 -0.387671 0 -0.345253 -0.362517 0 -0.271562 -0.363732 0 
-0.296377 -0.36286 0 -0.271635 -0.388153 0 -0.296264 -0.387654 0 
-0.246303 -0.365362 0 -0.220764 -0.365735 0 -0.221246 -0.389559 0 
-0.246593 -0.389292 0 -0.169888 -0.365077 0 -0.170779 -0.389028 0 
-0.195296 -0.364995 0 -0.195951 -0.389023 0 -0.118706 -0.366047 0 
-0.144342 -0.36565 0 -0.145516 -0.389444 0 -0.120121 -0.389768 0 
-0.0676473 -0.365324 0 -0.0694294 -0.38927 0 -0.0931027 -0.365534 0 
-0.094709 -0.389415 0 -0.016817 -0.365203 0 -0.0422122 -0.365388 0 
-0.0189804 -0.38924 0 -0.044192 -0.389314 0 0.0312768 -0.389048 0 
0.033656 -0.364891 0 0.00616863 -0.389154 0 0.00844696 -0.365063 0 
0.0563031 -0.388975 0 0.0837843 -0.364528 0 0.0812451 -0.388888 0 
0.0587825 -0.364719 0 0.108677 -0.364366 0 0.130917 -0.388677 0 
0.106118 -0.388791 0 0.133504 -0.364181 0 0.155634 -0.388569 0 
0.18027 -0.388472 0 0.182842 -0.363776 0 0.158238 -0.363985 0 
0.231524 -0.363181 0 0.204804 -0.388364 0 0.229201 -0.388199 0 
0.207276 -0.363514 0 0.279609 -0.362501 0 0.27758 -0.387758 0 
0.255622 -0.362823 0 0.253456 -0.387978 0 0.301605 -0.387562 0 
0.327338 -0.36199 0 0.34938 -0.387197 0 0.325555 -0.387409 0 
0.303516 -0.362234 0 0.374303 -0.360999 0 0.350957 -0.361526 0 
0.397515 -0.3607 0 0.373004 -0.386905 0 0.396497 -0.386724 0 
0.419552 -0.384914 0 0.442443 -0.356175 0 0.441935 -0.383336 0 
0.420245 -0.357924 0 0.46465 -0.38596 0 0.465047 -0.359887 0 
0.488519 -0.364004 0 0.488378 -0.389053 0 0.5375 -0.3625 0 
0.5375 -0.3875 0 0.5125 -0.3625 0 0.5125 -0.3875 0 
-0.5375 -0.3125 0 -0.5125 -0.3375 0 -0.5125 -0.3125 0 
-0.5375 -0.3375 0 -0.488129 -0.311179 0 -0.464462 -0.307939 0 
-0.488117 -0.336576 0 -0.464322 -0.334218 0 -0.441514 -0.305702 0 
-0.417903 -0.333461 0 -0.441164 -0.332302 0 -0.418279 -0.307466 0 
-0.370254 -0.31166 0 -0.369905 -0.336806 0 -0.394444 -0.310532 0 
-0.394087 -0.335879 0 -0.32145 -0.312835 0 -0.345555 -0.337544 0 
-0.32116 -0.337784 0 -0.345858 -0.312589 0 -0.27164 -0.339474 0 
-0.296824 -0.313622 0 -0.271709 -0.315339 0 -0.296614 -0.338181 0 
-0.246211 -0.317887 0 -0.220487 -0.318439 0 -0.246234 -0.341578 0 
-0.220573 -0.342044 0 -0.168988 -0.317901 0 -0.169375 -0.34137 0 
-0.194802 -0.317309 0 -0.194993 -0.341102 0 -0.143536 -0.342093 0 
-0.142862 -0.318783 0 -0.116739 -0.319115 0 -0.11766 -0.342494 0 
-0.0663211 -0.341518 0 -0.0919029 -0.34178 0 -0.0651632 -0.3178 0 
-0.0908202 -0.318108 0 -0.0136983 -0.317431 0 -0.0394322 -0.318062 0 
-0.0151603 -0.341266 0 -0.0407209 -0.34164 0 0.0101733 -0.341024 0 
0.0117435 -0.317 0 0.0354032 -0.340795 0 0.0369868 -0.316695 0 
0.0606051 -0.340547 0 0.0857199 -0.340212 0 0.0873945 -0.316012 0 
0.0621768 -0.316463 0 0.112456 -0.315575 0 0.135507 -0.33969 0 
0.110672 -0.339954 0 0.137289 -0.315164 0 0.186325 -0.314054 0 
0.160217 -0.339364 0 0.184735 -0.33898 0 0.161915 -0.314647 0 
0.23318 -0.338019 0 0.210542 -0.31341 0 0.209047 -0.338516 0 
0.234634 -0.312799 0 0.257195 -0.337561 0 0.282588 -0.31179 0 
0.281131 -0.337163 0 0.258651 -0.312274 0 0.328706 -0.336396 0 
0.306398 -0.311317 0 0.304986 -0.336815 0 0.329971 -0.310616 0 
0.353153 -0.309337 0 0.375244 -0.334797 0 0.398206 -0.334352 0 
0.398842 -0.307633 0 0.376117 -0.308378 0 0.352124 -0.335573 0 
0.442894 -0.329082 0 0.443564 -0.302153 0 0.421136 -0.303212 0 
0.420645 -0.330602 0 0.48863 -0.313199 0 0.465733 -0.306785 0 
0.465387 -0.33358 0 0.488602 -0.33869 0 0.5125 -0.3375 0 
0.5375 -0.3375 0 0.5375 -0.3125 0 0.5125 -0.3125 0 
-0.5375 -0.2625 0 -0.5125 -0.2875 0 -0.5375 -0.2875 0 
-0.5125 -0.2625 0 -0.488074 -0.2858 0 -0.464484 -0.281357 0 
-0.464413 -0.254384 0 -0.487957 -0.260569 0 -0.441776 -0.278928 0 
-0.418801 -0.255551 0 -0.441985 -0.251991 0 -0.418554 -0.281498 0 
-0.370687 -0.261616 0 -0.370501 -0.286564 0 -0.395009 -0.259797 0 
-0.394732 -0.285185 0 -0.345973 -0.287708 0 -0.321505 -0.287879 0 
-0.345942 -0.263019 0 -0.321379 -0.262911 0 -0.271521 -0.267264 0 
-0.271567 -0.291301 0 -0.296805 -0.289213 0 -0.296709 -0.264883 0 
-0.246008 -0.27066 0 -0.22024 -0.29491 0 -0.220126 -0.27147 0 
-0.246025 -0.294255 0 -0.16796 -0.271646 0 -0.194444 -0.293624 0 
-0.168424 -0.294674 0 -0.19418 -0.270057 0 -0.115703 -0.295885 0 
-0.114896 -0.272832 0 -0.141398 -0.272798 0 -0.142046 -0.295698 0 
-0.0638768 -0.294147 0 -0.0627298 -0.270671 0 -0.0887106 -0.270985 0 
-0.0896377 -0.294493 0 -0.0365447 -0.271378 0 -0.0380198 -0.294632 0 
-0.0104948 -0.270054 0 -0.0121276 -0.293716 0 0.0388697 -0.29258 0 
0.0151233 -0.269309 0 0.0406773 -0.26862 0 0.0134751 -0.293086 0 
0.0660114 -0.268133 0 0.0910011 -0.267582 0 0.0640316 -0.292339 0 
0.0891631 -0.291869 0 0.139053 -0.290572 0 0.115924 -0.266814 0 
0.11423 -0.291226 0 0.140739 -0.265976 0 0.163632 -0.289827 0 
0.189878 -0.264061 0 0.187995 -0.28904 0 0.1654 -0.265005 0 
0.236366 -0.287603 0 0.212218 -0.288273 0 0.214248 -0.263225 0 
0.238527 -0.262496 0 0.262616 -0.261726 0 0.284365 -0.286389 0 
0.286396 -0.260796 0 0.260442 -0.287012 0 0.331375 -0.28451 0 
0.308054 -0.285663 0 0.309827 -0.259717 0 0.332864 -0.258051 0 
0.355642 -0.256176 0 0.354287 -0.282836 0 0.377213 -0.281942 0 
[...]
POINT_DATA 2798
SCALARS id float
LOOKUP_TABLE default
2601 2600 2621 2620 2640 2641 2642 2643 2644 
2647 2646 2645 2648 2650 2649 2651 2655 2652 
2654 2653 2659 2657 2656 2658 2663 2661 2660 
2662 2666 2667 2665 2664 2670 2671 2668 2669 
2674 2675 2672 2673 2680 2681 2679 2678 2677 
2676 2684 2685 2683 2682 2689 2687 2688 2686 
2690 2693 2692 2691 2697 2694 2695 2696 2699 
2700 2701 2698 2704 2705 2702 2703 2706 2708 
2709 2707 2711 2710 2713 2712 2714 2715 2716 
2717 2718 2719 2720 2721 2723 2743 2722 2742 
2602 2603 2622 2623 1679 1661 1678 1660 1697 
1714 1715 1696 1751 1750 1732 1733 1786 1768 
1769 1787 1822 1823 1805 1804 1859 1841 1858 
1840 1876 1895 1877 1894 1912 1913 1930 1931 
1948 1949 1966 1967 2003 2002 1984 1985 2021 
2038 2039 2020 2074 2057 2075 2056 2111 2093 
2110 2128 2092 2129 2147 2164 2146 2165 2182 
2183 2200 2237 2236 2219 2218 2201 2273 2254 
2272 2255 2308 2291 2290 2309 2344 2326 2327 
2345 2362 2363 2381 2380 2744 2745 2724 2725 
2624 2625 2605 2604 1663 1681 1680 1662 1699 
1717 1716 1698 1734 1735 1752 1753 1770 1789 
1788 1771 1825 1807 1824 1806 1843 1861 1860 
1842 1897 1896 1879 1878 1933 1915 1914 1932 
1969 1968 1951 1950 2005 1987 2004 1986 2040 
2041 2022 2023 2058 2077 2076 2059 2095 2112 
2094 2113 2130 2148 2149 2131 2185 2166 2184 
2167 2221 2220 2203 2202 2238 2257 2274 2256 
2239 2293 2275 2311 2292 2310 2328 2347 2346 
2329 2364 2365 2383 2382 2747 2746 2727 2726 
2607 2626 2627 2606 1665 1683 1664 1682 1701 
1718 1700 1719 1755 1754 1737 1736 1791 1772 
1790 1773 1826 1809 1827 1808 1845 1863 1844 
1862 1899 1898 1881 1880 1916 1917 1935 1934 
1970 1952 1971 1953 2007 1989 2006 1988 2024 
2025 2042 2043 2060 2078 2079 2061 2097 2114 
2096 2115 2151 2132 2150 2133 2186 2169 2168 
2187 2204 2223 2222 2205 2258 2241 2240 2259 
2277 2294 2312 2313 2295 2276 2348 2349 2331 
2330 2385 2367 2366 2384 2728 2748 2749 2729 
2609 2628 2608 2629 1666 1684 1685 1667 1702 
1721 1703 1720 1757 1756 1739 1738 1774 1792 
1775 1793 1829 1828 1810 1811 1847 1864 1865 
1846 1901 1882 1900 1883 1936 1937 1919 1918 
1972 1973 1955 1954 1991 1990 2009 2008 2044 
2027 2045 2026 2063 2081 2062 2080 2116 2099 
2098 2117 2134 2153 2152 2135 2188 2170 2171 
2189 2207 2224 2225 2206 2260 2242 2243 2261 
2279 2278 2296 2314 2297 2315 2332 2350 2369 
2386 2387 2368 2751 2731 2730 2750 2611 2630 
2631 2610 1669 1686 1668 1723 1704 1722 1759 
1741 1758 1740 1776 1777 1794 1795 1830 1831 
1813 1812 1848 1866 1849 1868 1867 1902 1884 
1903 1885 1904 1920 1921 1938 1939 1940 1922 
1975 1976 1974 1956 1958 1957 1992 1993 2012 
2010 1994 2011 2047 2028 2046 2029 2064 2082 
2065 2083 2101 2118 2100 2119 2137 2136 2154 
2155 2172 2190 2173 2191 2227 2226 2208 2209 
2262 2263 2245 2244 2281 2280 2299 2298 2334 
2333 2351 2352 2316 2389 2370 2388 2733 2753 
2752 2732 2633 2613 2612 2632 1670 1671 1687 
1688 1725 1706 1724 1705 1742 1760 1743 1761 
1779 1778 1796 1797 1833 1815 1814 1832 1851 
1870 1869 1852 1850 1905 1906 1886 1887 1888 
1941 1942 1923 1924 1978 1960 1977 1959 1996 
2013 2014 1995 2049 2048 2031 2032 2030 2050 
2067 2084 2066 2068 2120 2102 2103 2085 2121 
2138 2139 2156 2157 2174 2192 2175 2228 2229 
2210 2193 2211 2247 2246 2265 2264 2282 2300 
2318 2353 2336 2317 2335 2390 2354 2372 2371 
2755 2735 2734 2754 2635 2634 2615 2614 1689 
1673 1672 1690 1708 1726 1727 1707 1744 1762 
1763 1745 1817 1798 1799 1781 1780 1816 1834 
1835 1854 1872 1853 1871 1907 1908 1889 1890 
1925 1926 1943 1944 1962 1961 1979 1998 1999 
1980 1997 2016 2033 2034 2015 2052 2070 2069 
2051 2086 2104 2087 2105 2122 2123 2140 2141 
2176 2158 2177 2159 2212 2213 2195 2194 2231 
2266 2230 2248 2302 2284 2283 2301 2338 2320 
2337 2319 2373 2356 2391 2392 2355 2757 2736 
2756 2737 2617 2636 2637 2616 1691 1675 1692 
1674 1728 1729 1710 1709 1765 1764 1747 1746 
1766 1784 1800 1782 1783 1836 1801 1818 1873 
1819 1855 1837 1856 1891 1874 1892 1909 1910 
1839 1927 1945 1963 1928 1946 1982 1964 1981 
2018 2017 2000 2035 1911 2036 2071 2054 2053 
2106 2107 2088 2089 2125 2142 2143 2124 2178 
2161 2179 2160 2215 2214 2197 2196 2232 2250 
2249 2233 2267 2285 2268 2303 2286 2322 2321 
2304 2339 2374 2375 2393 2357 2739 2758 2759 
2738 2564 2565 2566 2567 2571 2570 2569 2568 
2575 2572 2573 2574 2578 2576 2577 2579 2582 
2581 2580 2583 2584 2587 2586 2585 2591 2590 
2589 2588 2592 2594 2595 2593 2596 2598 2597 
2599 2618 2638 2619 2639 1677 1676 1693 1600 
1694 1711 1695 1730 1712 1713 1748 1731 1749 
40 20 1561 60 1767 1802 80 120 1785 
1820 100 1803 160 140 1 1821 180 200 
1838 220 61 1875 1857 240 300 260 1893 
121 280 320 181 161 1929 340 360 1947 
1965 1983 2090 380 2072 2126 2019 2108 2001 
2144 2162 2055 2037 2198 2073 2216 2180 2091 
2234 2251 2109 2252 2288 2270 2287 2269 2340 
2306 2323 2305 2376 2394 2358 2341 2740 2761 
2760 2741 2765 2763 2764 2762 2766 2769 2768 
2767 2770 2773 2771 2772 2774 2777 2776 2775 
2779 2778 2780 2781 2784 2785 2782 2783 2787 
2786 2788 2789 2790 2791 2792 2793 2796 2794 
2795 2797 1001 1160 1040 1061 1200 1041 1180 
1021 1240 1220 1081 1101 1121 1260 1161 1141 
1280 1300 1320 1340 1181 1221 1380 1360 1201 
1420 1400 1261 1241 1460 1440 1281 1480 1301 
1321 1500 1520 1361 1341 1540 1381 1560 1401 
1580 1640 1441 1461 1620 1421 0 1501 1481 
1522 1521 1502 1541 1542 1562 1601 1582 1581 
1602 1622 1641 1621 2 21 41 1642 22 
81 42 62 82 101 102 143 141 122 
142 162 182 201 221 400 241 202 222 
261 281 242 262 420 301 440 460 321 
480 341 500 361 381 401 540 520 2127 
580 2145 560 2324 600 620 2181 2163 640 
2199 2217 2342 2235 680 2359 2395 2377 2360 
720 700 2253 2396 840 2271 2307 800 2378 
2289 721 2343 761 2325 701 880 2361 2379 
860 1020 900 1060 940 2397 920 1080 1100 
960 980 1120 1000 1140 961 902 941 922 
981 962 942 1002 963 982 1003 1022 983 
1043 1062 1082 1023 1063 1042 1064 1122 1103 
1102 1083 1144 1143 1123 1162 1124 1142 1163 
1182 1183 1223 1222 1203 1202 1263 1262 1242 
1243 1302 1282 1283 1303 1322 1342 1343 1323 
1363 1383 1362 1382 1423 1403 1402 1422 1443 
1482 1442 1463 1462 1503 1483 1523 1543 1524 
1564 1544 1563 1603 1584 1583 1604 1623 1644 
1624 1643 3 24 23 44 43 4 64 
83 84 63 124 123 103 104 183 144 
163 184 164 224 204 223 203 264 244 
243 263 283 303 282 302 322 323 343 
342 362 363 382 383 421 402 441 422 
403 462 481 461 442 502 482 501 521 
522 541 660 542 581 561 562 582 601 
621 622 740 661 641 780 760 642 681 
682 702 722 741 703 820 762 801 782 
742 781 802 822 803 841 783 821 843 
881 862 861 842 882 921 901 883 863 
903 923 924 904 964 945 943 965 944 
1004 1005 984 1024 1045 1044 1025 1084 1085 
1065 1104 1105 1125 1184 1165 1185 1164 1145 
1204 1225 1205 1224 1244 1265 1245 1264 1284 
1304 1285 1305 1344 1325 1345 1324 1364 1365 
1385 1384 1404 1425 1405 1424 1464 1444 1445 
1465 1504 1485 1505 1484 1565 1545 1546 1525 
1566 1606 1586 1585 1605 1646 1625 1645 1626 
5 25 6 26 45 86 66 85 65 
46 126 125 105 106 166 145 165 146 
186 206 205 185 245 226 246 225 304 
285 265 305 284 344 345 325 324 384 
365 364 385 423 425 424 404 405 443 
444 464 463 483 503 484 504 543 544 
523 524 563 564 603 602 604 584 583 
623 624 644 643 663 683 662 664 684 
724 704 723 743 744 763 764 804 805 
785 784 845 824 823 844 865 864 884 
905 927 925 926 906 907 946 966 967 
947 985 986 1007 987 1006 1027 1046 1026 
1047 1066 1086 1067 1087 1107 1106 1127 1126 
1147 1167 1146 1166 1207 1187 1226 1206 1227 
1186 1247 1246 1266 1267 1306 1287 1307 1286 
1327 1346 1347 1326 1387 1366 1367 1386 1426 
1406 1427 1407 1447 1446 1466 1467 1507 1506 
1487 1486 1547 1526 1527 1607 1587 1568 1608 
1567 1588 1627 1647 1648 8 7 27 28 
48 67 47 68 127 107 108 128 88 
87 147 167 168 148 207 188 187 208 
227 228 248 247 286 287 266 267 326 
307 327 306 346 386 366 347 367 387 
426 406 407 445 427 465 466 446 485 
505 486 506 526 525 545 565 566 546 
605 606 585 586 625 626 645 646 685 
665 686 666 705 726 725 706 746 767 
745 766 747 765 807 786 787 806 847 
827 846 826 825 866 885 886 867 887 
929 909 928 908 948 968 949 969 988 
989 1008 1009 1028 1049 1029 1048 1069 1089 
1068 1088 1128 1109 1129 1108 1149 1168 1169 
1148 1188 1208 1189 1209 1228 1248 1249 1268 
1229 1269 1308 1309 1288 1289 1328 1329 1349 
1348 1368 1388 1389 1369 1428 1409 1408 1429 
1469 1448 1449 1468 1509 1508 1489 1488 1549 
1548 1529 1528 1569 1589 1649 1629 1609 1628 
9 29 69 49 89 109 129 130 169 
149 170 150 189 210 209 190 229 249 
250 230 288 289 269 268 328 309 329 
308 348 369 368 349 388 409 389 408 
447 449 429 448 428 488 468 467 469 
487 489 528 508 507 527 547 548 568 
567 587 607 608 588 627 648 647 628 
668 688 667 687 727 708 707 709 728 
768 769 749 748 808 809 788 789 848 
849 828 829 869 868 889 888 930 910 
931 911 971 970 951 950 1010 991 990 
1011 1050 1031 1051 1030 1091 1070 1071 1090 
1131 1111 1130 1110 1151 1150 1170 1171 1211 
1190 1210 1191 1250 1231 1251 1271 1230 1270 
1290 1291 1310 1311 1331 1330 1351 1350 1390 
1370 1371 1391 1430 1431 1410 1411 1471 1451 
1470 1450 1510 1511 1491 1490 1551 1530 1531 
1550 1611 1610 1590 1571 1570 1591 1630 1650 
1651 1631 11 30 31 10 70 50 71 
51 91 111 90 110 131 171 151 172 
211 192 212 191 232 251 231 271 290 
270 291 310 331 330 311 350 351 370 
371 411 410 391 390 430 451 450 431 
490 491 470 471 510 529 530 511 531 
509 571 551 569 549 550 570 610 590 
609 589 611 591 630 649 629 651 631 
650 690 669 670 689 691 731 730 711 
710 729 771 751 750 770 810 791 811 
790 830 851 831 850 871 870 890 891 
933 913 912 932 972 973 952 953 993 
992 1013 1012 1052 1032 1053 1033 1092 1093 
1072 1073 1112 1133 1132 1113 1152 1173 1172 
1193 1153 1192 1232 1213 1212 1233 1273 1252 
1272 1253 1292 1293 1313 1312 1352 1333 1332 
1353 1393 1372 1373 1392 1412 1413 1432 1433 
1452 1472 1473 1453 1493 1512 1513 1492 1532 
1573 1552 1553 1533 1612 1613 1593 1592 1572 
1652 1653 1632 1633 33 12 32 13 72 
52 73 53 113 93 112 92 133 132 
173 152 153 213 193 252 233 253 234 
272 273 292 293 333 313 332 312 373 
372 352 353 393 392 413 412 432 452 
453 433 473 493 492 472 513 533 512 
532 553 573 572 552 612 613 593 592 
653 652 632 633 672 673 671 692 693 
713 712 733 732 772 773 753 752 813 
793 812 792 833 853 832 852 873 872 
892 893 914 915 935 934 955 974 954 
975 995 1015 1014 994 1055 1034 1054 1035 
1075 1074 1095 1094 1115 1154 1155 1135 1134 
1114 1175 1195 1194 1174 1234 1214 1235 1215 
1254 1274 1255 1275 1295 1314 1315 1294 1334 
1354 1355 1335 1394 1395 1374 1375 1415 1434 
1414 1435 1455 1474 1495 1475 1454 1514 1535 
1515 1534 1494 1555 1575 1554 1574 1595 1614 
1615 1594 1654 1655 1634 1635 34 15 35 
14 55 74 54 75 114 95 115 94 
135 134 174 154 155 175 215 194 195 
214 254 255 235 294 274 295 275 335 
315 334 355 314 354 374 395 375 394 
415 414 435 434 455 475 454 474 515 
495 494 555 514 535 534 554 574 595 
575 594 615 614 655 634 635 654 695 
675 674 694 714 734 735 715 774 775 
754 755 795 794 814 815 835 834 855 
854 875 895 894 874 937 936 957 956 
916 977 996 997 976 1037 1017 1016 1036 
1057 1076 1077 1056 1097 1116 1096 1117 1157 
1137 1156 1136 1197 1196 1176 1177 1237 1216 
1217 1236 1257 1277 1276 1256 1296 1297 1316 
1317 1356 1336 1357 1337 1377 1396 1376 1417 
1397 1416 1437 1457 1436 1456 1477 1476 1497 
1496 1537 1516 1517 1536 1556 1576 1577 1557 
1596 1617 1616 1597 1636 1657 1637 1656 36 
17 37 57 16 77 97 96 56 76 
117 137 116 136 157 177 176 156 196 
217 216 197 237 236 256 277 257 296 
276 316 297 317 357 337 356 336 376 
396 397 377 436 437 417 416 457 476 
477 456 517 516 496 497 537 557 536 
556 577 597 596 576 616 617 637 636 
657 677 656 676 697 696 717 716 757 
737 736 756 777 797 776 796 817 816 
837 836 856 857 877 897 876 896 917 
938 1119 1139 958 1159 998 1179 978 1038 
1018 1219 1199 1058 1239 1078 1259 1279 1118 
1299 1098 1319 1138 1158 1339 1359 1399 1178 
1218 1198 1379 1439 1419 1258 1238 1298 1459 
1479 1278 1318 1519 1338 1499 1559 1378 1539 
1358 1579 1418 1599 1398 1619 1458 1639 1438 
1659 1478 1498 39 19 1518 1538 59 79 
1558 99 119 1598 1578 1638 159 139 1618 
1658 18 179 199 219 38 239 58 279 
98 78 259 299 138 319 158 118 339 
178 198 379 359 218 399 419 238 258 
439 459 278 298 479 499 318 338 358 
539 519 378 579 559 398 418 619 599 
438 458 478 659 639 518 699 679 498 
719 739 558 538 779 578 598 759 618 
638 819 799 658 859 839 678 899 698 
879 718 738 919 939 758 959 798 979 
778 838 1019 818 999 858 1039 1059 878 
898 1079 1099 918 2399 2398 2401 2400 2404 
2403 2405 2402 2407 2408 2406 2409 2412 2411 
2413 2410 2415 2416 2417 2414 2421 2418 2419 
2420 2425 2424 2426 2427 2423 2422 2430 2428 
2431 2429 2435 2434 2433 2432 2436 2438 2437 
2439 2442 2443 2441 2440 2446 2447 2444 2445 
2449 2448 2450 2451 2452 2453 2454 2455 2457 
2459 2458 2456 2463 2461 2460 2462 2465 2464 
2467 2466 2468 2469 2470 2471 2475 2474 2473 
2472 2477 2476 2481 2478 2479 2480 2482 2483 
2484 2485 2488 2487 2486 2489 2490 2491 2492 
2493 2497 2496 2495 2494 2499 2498 2501 2500 
2505 2502 2503 2504 2509 2508 2507 2506 2511 
2510 2513 2512 2514 2515 2516 2517 2519 2520 
2521 2518 2525 2522 2523 2524 2526 2529 2528 
2527 2531 2530 2533 2532 2534 2535 2536 2537 
2538 2539 2541 2542 2540 2543 2544 2545 2546 
2547 2548 2549 2550 2551 2555 2552 2553 2554 
2558 2556 2557 2559 2560 2561 2562 2563 
FIELD FieldData 7
r 3 2798 float
-0.5375 -0.4625 0 -0.5375 -0.4875 0 -0.5125 -0.4625 0 
-0.5125 -0.4875 0 -0.487805 -0.4875 0 -0.487805 -0.4625 0 
-0.463415 -0.4875 0 -0.463415 -0.4625 0 -0.439024 -0.4875 0 
-0.414634 -0.4625 0 -0.414634 -0.4875 0 -0.439024 -0.4625 0 
-0.390244 -0.4875 0 -0.365854 -0.4875 0 -0.390244 -0.4625 0 
-0.365854 -0.4625 0 -0.317073 -0.4625 0 -0.341463 -0.4875 0 
-0.317073 -0.4875 0 -0.341463 -0.4625 0 -0.268293 -0.4625 0 
-0.292683 -0.4625 0 -0.292683 -0.4875 0 -0.268293 -0.4875 0 
-0.219512 -0.4625 0 -0.243902 -0.4625 0 -0.243902 -0.4875 0 
-0.219512 -0.4875 0 -0.170732 -0.4875 0 -0.170732 -0.4625 0 
-0.195122 -0.4625 0 -0.195122 -0.4875 0 -0.121951 -0.4875 0 
-0.121951 -0.4625 0 -0.146341 -0.4875 0 -0.146341 -0.4625 0 
-0.0731707 -0.4875 0 -0.0731707 -0.4625 0 -0.097561 -0.4875 0 
-0.097561 -0.4625 0 -1.86265e-08 -0.4875 0 -1.86265e-08 -0.4625 0 
-0.0243903 -0.4625 0 -0.0243903 -0.4875 0 -0.0487805 -0.4625 0 
-0.0487805 -0.4875 0 0.0487805 -0.4875 0 0.0487805 -0.4625 0 
0.0243902 -0.4625 0 0.0243902 -0.4875 0 0.097561 -0.4625 0 
0.0731707 -0.4625 0 0.097561 -0.4875 0 0.0731707 -0.4875 0 
0.121951 -0.4875 0 0.146341 -0.4625 0 0.146341 -0.4875 0 
0.121951 -0.4625 0 0.195122 -0.4625 0 0.170732 -0.4875 0 
0.170732 -0.4625 0 0.195122 -0.4875 0 0.219512 -0.4625 0 
0.243902 -0.4875 0 0.243902 -0.4625 0 0.219512 -0.4875 0 
0.292683 -0.4875 0 0.292683 -0.4625 0 0.268293 -0.4875 0 
0.268293 -0.4625 0 0.317073 -0.4875 0 0.341463 -0.4875 0 
0.341463 -0.4625 0 0.317073 -0.4625 0 0.365854 -0.4625 0 
0.365854 -0.4875 0 0.390244 -0.4625 0 0.390244 -0.4875 0 
0.414634 -0.4875 0 0.414634 -0.4625 0 0.439024 -0.4875 0 
0.439024 -0.4625 0 0.463415 -0.4875 0 0.463415 -0.4625 0 
0.487805 -0.4875 0 0.487805 -0.4625 0 0.5125 -0.4625 0 
0.5375 -0.4625 0 0.5125 -0.4875 0 0.5375 -0.4875 0 
-0.5375 -0.4375 0 -0.5375 -0.4125 0 -0.5125 -0.4375 0 
-0.5125 -0.4125 0 -0.463876 -0.411786 0 -0.488039 -0.412383 0 
-0.463684 -0.437273 0 -0.488048 -0.437537 0 -0.440205 -0.411203 0 
-0.41601 -0.437199 0 -0.416724 -0.411402 0 -0.439765 -0.437115 0 
-0.36884 -0.412316 0 -0.367854 -0.437505 0 -0.392037 -0.437431 0 
-0.392934 -0.412056 0 -0.319223 -0.437631 0 -0.343573 -0.437581 0 
-0.34458 -0.412523 0 -0.320233 -0.412635 0 -0.270554 -0.437639 0 
-0.271423 -0.412793 0 -0.295887 -0.412566 0 -0.294902 -0.437588 0 
-0.221485 -0.413593 0 -0.2466 -0.41345 0 -0.221107 -0.437898 0 
-0.245946 -0.437863 0 -0.196358 -0.437767 0 -0.171527 -0.413257 0 
-0.196435 -0.41326 0 -0.171736 -0.437779 0 -0.147036 -0.43786 0 
-0.146542 -0.413508 0 -0.122195 -0.437939 0 -0.1214 -0.413715 0 
-0.0973611 -0.437848 0 -0.0962425 -0.413493 0 -0.0726368 -0.437833 0 
-0.0712088 -0.413416 0 -0.0212205 -0.413442 0 -0.0231832 -0.437848 0 
-0.0479205 -0.437851 0 -0.0462127 -0.413457 0 0.00374129 -0.413389 0 
0.0262275 -0.437805 0 0.0286689 -0.413339 0 0.00153914 -0.437823 0 
0.0755748 -0.437795 0 0.0535474 -0.413329 0 0.07839 -0.413294 0 
0.0509027 -0.437807 0 0.127933 -0.413211 0 0.103191 -0.413252 0 
0.124849 -0.437782 0 0.149449 -0.437772 0 0.100223 -0.437786 0 
0.152613 -0.413163 0 0.177241 -0.413121 0 0.198562 -0.437764 0 
0.174016 -0.437764 0 0.201817 -0.413099 0 0.223092 -0.437762 0 
0.226325 -0.413049 0 0.247582 -0.437747 0 0.299244 -0.412737 0 
0.296382 -0.437702 0 0.275044 -0.412847 0 0.272014 -0.437727 0 
0.25074 -0.412952 0 0.347395 -0.412574 0 0.320682 -0.437678 0 
0.344927 -0.437666 0 0.32336 -0.412653 0 0.393266 -0.43767 0 
0.371317 -0.412449 0 0.369112 -0.437637 0 0.395131 -0.412406 0 
0.440435 -0.436937 0 0.417182 -0.437373 0 0.418573 -0.411434 0 
0.441288 -0.410327 0 0.46374 -0.437405 0 0.464195 -0.411819 0 
0.488202 -0.413808 0 0.48811 -0.438265 0 0.5375 -0.4375 0 
0.5375 -0.4125 0 0.5125 -0.4375 0 0.5125 -0.4125 0 
-0.5125 -0.3875 0 -0.5125 -0.3625 0 -0.5375 -0.3625 0 
-0.5375 -0.3875 0 -0.48808 -0.361907 0 -0.464141 -0.360256 0 
-0.464009 -0.386104 0 -0.488067 -0.387167 0 -0.44081 -0.35875 0 
-0.417509 -0.359455 0 -0.417173 -0.385457 0 -0.440523 -0.385056 0 
-0.393426 -0.386631 0 -0.393732 -0.36123 0 -0.369325 -0.387124 0 
-0.369581 -0.361955 0 -0.34504 -0.3875 0 -0.320855 -0.362728 0 
-0.320671 -0.387671 0 -0.345253 -0.362517 0 -0.271562 -0.363732 0 
-0.296377 -0.36286 0 -0.271635 -0.388153 0 -0.296264 -0.387654 0 
-0.246303 -0.365362 0 -0.220764 -0.365735 0 -0.221246 -0.389559 0 
-0.246593 -0.389292 0 -0.169888 -0.365077 0 -0.170779 -0.389028 0 
-0.195296 -0.364995 0 -0.195951 -0.389023 0 -0.118706 -0.366047 0 
-0.144342 -0.36565 0 -0.145516 -0.389444 0 -0.120121 -0.389768 0 
-0.0676473 -0.365324 0 -0.0694294 -0.38927 0 -0.0931027 -0.365534 0 
-0.094709 -0.389415 0 -0.016817 -0.365203 0 -0.0422122 -0.365388 0 
-0.0189804 -0.38924 0 -0.044192 -0.389314 0 0.0312768 -0.389048 0 
0.033656 -0.364891 0 0.00616863 -0.389154 0 0.00844696 -0.365063 0 
0.0563031 -0.388975 0 0.0837843 -0.364528 0 0.0812451 -0.388888 0 
0.0587825 -0.364719 0 0.108677 -0.364366 0 0.130917 -0.388677 0 
0.106118 -0.388791 0 0.133504 -0.364181 0 0.155634 -0.388569 0 
0.18027 -0.388472 0 0.182842 -0.363776 0 0.158238 -0.363985 0 
0.231524 -0.363181 0 0.204804 -0.388364 0 0.229201 -0.388199 0 
0.207276 -0.363514 0 0.279609 -0.362501 0 0.27758 -0.387758 0 
0.255622 -0.362823 0 0.253456 -0.387978 0 0.301605 -0.387562 0 
0.327338 -0.36199 0 0.34938 -0.387197 0 0.325555 -0.387409 0 
0.303516 -0.362234 0 0.374303 -0.360999 0 0.350957 -0.361526 0 
0.397515 -0.3607 0 0.373004 -0.386905 0 0.396497 -0.386724 0 
0.419552 -0.384914 0 0.442443 -0.356175 0 0.441935 -0.383336 0 
0.420245 -0.357924 0 0.46465 -0.38596 0 0.465047 -0.359887 0 
0.488519 -0.364004 0 0.488378 -0.389053 0 0.5375 -0.3625 0 
0.5375 -0.3875 0 0.5125 -0.3625 0 0.5125 -0.3875 0 
-0.5375 -0.3125 0 -0.5125 -0.3375 0 -0.5125 -0.3125 0 
-0.5375 -0.3375 0 -0.488129 -0.311179 0 -0.464462 -0.307939 0 
-0.488117 -0.336576 0 -0.464322 -0.334218 0 -0.441514 -0.305702 0 
-0.417903 -0.333461 0 -0.441164 -0.332302 0 -0.418279 -0.307466 0 
-0.370254 -0.31166 0 -0.369905 -0.336806 0 -0.394444 -0.310532 0 
-0.394087 -0.335879 0 -0.32145 -0.312835 0 -0.345555 -0.337544 0 
-0.32116 -0.337784 0 -0.345858 -0.312589 0 -0.27164 -0.339474 0 
-0.296824 -0.313622 0 -0.271709 -0.315339 0 -0.296614 -0.338181 0 
-0.246211 -0.317887 0 -0.220487 -0.318439 0 -0.246234 -0.341578 0 
-0.220573 -0.342044 0 -0.168988 -0.317901 0 -0.169375 -0.34137 0 
-0.194802 -0.317309 0 -0.194993 -0.341102 0 -0.143536 -0.342093 0 
-0.142862 -0.318783 0 -0.116739 -0.319115 0 -0.11766 -0.342494 0 
-0.0663211 -0.341518 0 -0.0919029 -0.34178 0 -0.0651632 -0.3178 0 
-0.0908202 -0.318108 0 -0.0136983 -0.317431 0 -0.0394322 -0.318062 0 
-0.0151603 -0.341266 0 -0.0407209 -0.34164 0 0.0101733 -0.341024 0 
0.0117435 -0.317 0 0.0354032 -0.340795 0 0.0369868 -0.316695 0 