# vtk DataFile Version 4.0
vtk output
ASCII
DATASET POLYDATA
FIELD FieldData 4
domain 1 3 string
domain_min:-20|-15
domain_max:20|15
cell_size:0.05

variables 1 2 string
dt:0.000372678
T:0.845216

constants 1 10 string
xsize:2
ysize:1
csize:0.05
dx:0.0238095
h:0.025
rho0:1000
mass:0.566894
g:1|0
c:13.4164
CFL:0.2

functions 1 8 string
time:T=(T+dt)
continuity:rho_dot=((-(rho*sph_D00(v,mass,rho,Wp52220)))+(((0.1*c)*h)*sph_L00(rho,mass,rho,Wp52220)))
irho:rho=(rho+int1((rho_dot,dt))
EOS:p=(((c^2)*(rho-rho0))+10000)
euler:a=if((gid,(0*v),(((-((1/rho)*sph_G11(p,mass,rho,Wp52220)))+(0.01*sph_L00(v,mass,rho,Wp52220)))+g))
vel:v=(v+int1((a,dt))
pos:r=(r+int1((v,dt))
new_dt:dt=(CFL*min((sqrt(((h/fmax(magnitude((a)))),(h/c)))

POINTS 2798 float
-0.5125 -0.4875 0 -0.5125 -0.4625 0 -0.5375 -0.4875 0 
-0.5375 -0.4625 0 -0.487805 -0.4875 0 -0.487805 -0.4625 0 
-0.463415 -0.4875 0 -0.463415 -0.4625 0 -0.414634 -0.4875 0 
-0.439024 -0.4875 0 -0.414634 -0.4625 0 -0.439024 -0.4625 0 
-0.365854 -0.4625 0 -0.390244 -0.4625 0 -0.365854 -0.4875 0 
-0.390244 -0.4875 0 -0.341463 -0.4875 0 -0.317073 -0.4625 0 
-0.317073 -0.4875 0 -0.341463 -0.4625 0 -0.268293 -0.4875 0 
-0.292683 -0.4625 0 -0.292683 -0.4875 0 -0.268293 -0.4625 0 
-0.219512 -0.4625 0 -0.243902 -0.4625 0 -0.219512 -0.4875 0 
-0.243902 -0.4875 0 -0.170732 -0.4625 0 -0.195122 -0.4625 0 
-0.170732 -0.4875 0 -0.195122 -0.4875 0 -0.146341 -0.4625 0 
-0.146341 -0.4875 0 -0.121951 -0.4625 0 -0.121951 -0.4875 0 
-0.0731707 -0.4875 0 -0.097561 -0.4875 0 -0.097561 -0.4625 0 
-0.0731707 -0.4625 0 -0.0243903 -0.4875 0 -0.0243903 -0.4625 0 
-0.0487805 -0.4625 0 -1.86265e-08 -0.4625 0 -0.0487805 -0.4875 0 
-1.86265e-08 -0.4875 0 0.0243902 -0.4875 0 0.0487805 -0.4875 0 
0.0487805 -0.4625 0 0.0243902 -0.4625 0 0.097561 -0.4875 0 
0.097561 -0.4625 0 0.0731707 -0.4625 0 0.0731707 -0.4875 0 
0.121951 -0.4625 0 0.146341 -0.4625 0 0.121951 -0.4875 0 
0.146341 -0.4875 0 0.170732 -0.4875 0 0.195122 -0.4625 0 
0.170732 -0.4625 0 0.195122 -0.4875 0 0.219512 -0.4875 0 
0.219512 -0.4625 0 0.243902 -0.4875 0 0.243902 -0.4625 0 
0.268293 -0.4625 0 0.292683 -0.4625 0 0.268293 -0.4875 0 
0.292683 -0.4875 0 0.317073 -0.4875 0 0.341463 -0.4625 0 
0.341463 -0.4875 0 0.317073 -0.4625 0 0.365854 -0.4875 0 
0.390244 -0.4875 0 0.390244 -0.4625 0 0.365854 -0.4625 0 
0.439024 -0.4625 0 0.414634 -0.4875 0 0.439024 -0.4875 0 
0.414634 -0.4625 0 0.487805 -0.4875 0 0.487805 -0.4625 0 
0.463415 -0.4875 0 0.463415 -0.4625 0 0.5125 -0.4625 0 
0.5375 -0.4875 0 0.5125 -0.4875 0 0.5375 -0.4625 0 
-0.5375 -0.4125 0 -0.5125 -0.4125 0 -0.5125 -0.4375 0 
-0.5375 -0.4375 0 -0.465264 -0.434788 0 -0.488438 -0.411883 0 
-0.466783 -0.405284 0 -0.487835 -0.437423 0 -0.442169 -0.43792 0 
-0.421239 -0.410309 0 -0.418307 -0.43555 0 -0.44502 -0.412156 0 
-0.399647 -0.406951 0 -0.364424 -0.43854 0 -0.379702 -0.421892 0 
-0.362409 -0.404872 0 -0.395525 -0.43873 0 -0.340594 -0.437021 0 
-0.341618 -0.413049 0 -0.317919 -0.411156 0 -0.31621 -0.437288 0 
-0.295267 -0.409428 0 -0.29308 -0.436354 0 -0.272803 -0.410195 0 
-0.270063 -0.436816 0 -0.25043 -0.409623 0 -0.228312 -0.409433 0 
-0.201234 -0.436752 0 -0.224228 -0.436578 0 -0.205919 -0.410154 0 
-0.247006 -0.436548 0 -0.178506 -0.436407 0 -0.183543 -0.409281 0 
-0.155581 -0.437118 0 -0.161172 -0.410302 0 -0.138321 -0.411951 0 
-0.114351 -0.413437 0 -0.131687 -0.43769 0 -0.106844 -0.438073 0 
-0.0894145 -0.414218 0 -0.0641332 -0.414428 0 -0.0814157 -0.438218 0 
-0.0557659 -0.438233 0 -0.0112808 -0.415658 0 -0.0293271 -0.438573 0 
-0.00296822 -0.438367 0 -0.0379262 -0.415833 0 0.0498081 -0.438566 0 
0.0232008 -0.43833 0 0.0422126 -0.416074 0 0.0153118 -0.41533 0 
0.0696022 -0.416494 0 0.0765625 -0.438555 0 0.0980366 -0.417267 0 
0.125607 -0.416373 0 0.103725 -0.439029 0 0.130746 -0.438771 0 
0.15175 -0.414658 0 0.156944 -0.438276 0 0.177698 -0.415419 0 
0.183037 -0.438431 0 0.209401 -0.438901 0 0.235523 -0.438339 0 
0.230806 -0.414987 0 0.204682 -0.416203 0 0.261242 -0.438561 0 
0.286711 -0.438193 0 0.281977 -0.414502 0 0.256717 -0.41504 0 
0.334275 -0.415053 0 0.308003 -0.41506 0 0.312142 -0.438352 0 
0.337725 -0.43828 0 0.360587 -0.414915 0 0.388285 -0.438033 0 
0.363185 -0.438269 0 0.386459 -0.414202 0 0.412165 -0.414725 0 
0.437916 -0.414802 0 0.438689 -0.438347 0 0.413393 -0.438326 0 
0.488098 -0.413902 0 0.463582 -0.437888 0 0.488299 -0.438263 0 
0.463272 -0.413585 0 0.5375 -0.4125 0 0.5375 -0.4375 0 
0.5125 -0.4125 0 0.5125 -0.4375 0 -0.5125 -0.3625 0 
-0.5375 -0.3625 0 -0.5125 -0.3875 0 -0.5375 -0.3875 0 
-0.489231 -0.35755 0 -0.467796 -0.375194 0 -0.488651 -0.385158 0 
-0.426448 -0.357962 0 -0.449346 -0.356617 0 -0.446274 -0.385064 0 
-0.423407 -0.384401 0 -0.402444 -0.375745 0 -0.383417 -0.358771 0 
-0.363164 -0.373502 0 -0.382313 -0.389583 0 -0.34286 -0.385123 0 
-0.345336 -0.354882 0 -0.323501 -0.358955 0 -0.32052 -0.385214 0 
-0.301082 -0.354894 0 -0.253282 -0.382215 0 -0.275434 -0.383063 0 
-0.256361 -0.354643 0 -0.278478 -0.355811 0 -0.297824 -0.382076 0 
-0.231279 -0.381827 0 -0.234288 -0.354259 0 -0.211966 -0.355721 0 
-0.209039 -0.38303 0 -0.164329 -0.382971 0 -0.186763 -0.382095 0 
-0.189519 -0.355092 0 -0.166707 -0.355958 0 -0.143693 -0.358455 0 
-0.119959 -0.362844 0 -0.141815 -0.38524 0 -0.118345 -0.388155 0 
-0.0695439 -0.366294 0 -0.0686395 -0.39023 0 -0.0937217 -0.389874 0 
-0.0950652 -0.365688 0 -0.0430344 -0.392476 0 -0.017715 -0.369396 0 
-0.0171069 -0.392765 0 -0.043708 -0.368979 0 0.00901289 -0.39238 0 
0.0334087 -0.36999 0 0.00796069 -0.368783 0 0.0354932 -0.393351 0 
0.0899008 -0.396047 0 0.0827241 -0.350312 0 0.0853725 -0.373682 0 
0.0591289 -0.371158 0 0.0621674 -0.39432 0 0.111315 -0.372016 0 
0.143615 -0.391713 0 0.136218 -0.368427 0 0.117432 -0.394542 0 
0.190103 -0.371359 0 0.170422 -0.392152 0 0.162519 -0.369611 0 
0.197387 -0.394275 0 0.224813 -0.392365 0 0.215964 -0.371032 0 
0.244268 -0.370122 0 0.271288 -0.367623 0 0.277634 -0.390502 0 
0.298153 -0.367971 0 0.251813 -0.391974 0 0.323428 -0.370102 0 
0.330129 -0.392506 0 0.303164 -0.39212 0 0.384104 -0.39124 0 
0.378448 -0.369253 0 0.357222 -0.3924 0 0.35121 -0.370643 0 
0.410826 -0.391653 0 0.437111 -0.391651 0 0.406178 -0.369581 0 
0.433969 -0.369391 0 0.487581 -0.366244 0 0.488017 -0.389784 0 
0.462685 -0.389564 0 0.461098 -0.366473 0 0.5375 -0.3875 0 
0.5125 -0.3625 0 0.5125 -0.3875 0 0.5375 -0.3625 0 
-0.5375 -0.3125 0 -0.5375 -0.3375 0 -0.5125 -0.3125 0 
-0.5125 -0.3375 0 -0.469811 -0.343633 0 -0.468851 -0.309064 0 
-0.489081 -0.328146 0 -0.452468 -0.325597 0 -0.429992 -0.30527 0 
-0.405337 -0.346652 0 -0.408626 -0.319307 0 -0.43079 -0.332172 0 
-0.389471 -0.300574 0 -0.367612 -0.309398 0 -0.364729 -0.341351 0 
-0.385578 -0.32906 0 -0.304534 -0.328264 0 -0.308158 -0.302706 0 
-0.326841 -0.331783 0 -0.347519 -0.32278 0 -0.330642 -0.302221 0 
-0.284215 -0.302274 0 -0.281294 -0.328767 0 -0.261182 -0.300376 0 
-0.258871 -0.327246 0 -0.23823 -0.300021 0 -0.236385 -0.326906 0 
-0.213854 -0.328517 0 -0.215385 -0.301419 0 -0.167658 -0.329689 0 
-0.192473 -0.302085 0 -0.191088 -0.328432 0 -0.168664 -0.304121 0 
-0.143831 -0.332588 0 -0.119603 -0.338013 0 -0.14446 -0.30718 0 
-0.120315 -0.312846 0 -0.0961845 -0.316602 0 -0.0700254 -0.342191 0 
-0.0948552 -0.341524 0 -0.0720823 -0.317044 0 -0.0472276 -0.321662 0 
-0.018581 -0.345765 0 -0.0218946 -0.32196 0 -0.0443929 -0.345611 0 
0.00265911 -0.319456 0 0.0314257 -0.345897 0 0.00634169 -0.34448 0 
0.0271516 -0.321597 0 0.078817 -0.326739 0 0.0527045 -0.323389 0 
0.0567555 -0.347345 0 0.0759749 -0.303181 0 0.149102 -0.300583 0 
0.103706 -0.323755 0 0.127565 -0.319144 0 0.107789 -0.348097 0 
0.13184 -0.343789 0 0.184313 -0.349267 0 0.178983 -0.304392 0 
0.157235 -0.34649 0 0.180652 -0.326493 0 0.154157 -0.323019 0 
0.227926 -0.312365 0 0.244322 -0.327788 0 0.207253 -0.324951 0 
0.235187 -0.348556 0 0.211115 -0.346756 0 0.294164 -0.346567 0 
0.277315 -0.327311 0 0.263648 -0.346462 0 0.26087 -0.308835 0 
0.295491 -0.310916 0 0.3113 -0.330179 0 0.335373 -0.322287 0 
0.318184 -0.301297 0 0.32697 -0.348293 0 0.385953 -0.32452 0 
0.35267 -0.347869 0 0.379339 -0.346895 0 0.359202 -0.324684 0 
0.364096 -0.301605 0 0.390111 -0.301519 0 0.406384 -0.347813 0 
0.434185 -0.348 0 0.439149 -0.325929 0 0.412625 -0.325859 0 
0.441619 -0.302735 0 0.415714 -0.302933 0 0.462025 -0.343933 0 
0.488917 -0.318114 0 0.487843 -0.342841 0 0.464952 -0.319749 0 
0.5125 -0.3375 0 0.5375 -0.3125 0 0.5375 -0.3375 0 
0.5125 -0.3125 0 -0.5375 -0.2875 0 -0.5375 -0.2625 0 
-0.5125 -0.2875 0 -0.5125 -0.2625 0 -0.488984 -0.299572 0 
-0.488 -0.273304 0 -0.466403 -0.276693 0 -0.448525 -0.260384 0 
-0.449284 -0.29332 0 -0.429075 -0.274651 0 -0.409953 -0.288777 0 
-0.415177 -0.253825 0 -0.353461 -0.261343 0 -0.351406 -0.290333 0 
-0.393797 -0.269242 0 -0.373166 -0.278391 0 -0.309563 -0.276728 0 
-0.331727 -0.272896 0 -0.29026 -0.25131 0 -0.286033 -0.276402 0 
-0.262599 -0.273933 0 -0.239453 -0.273523 0 -0.216523 -0.274594 0 
-0.171573 -0.253254 0 -0.169644 -0.278763 0 -0.193479 -0.275892 0 
-0.10029 -0.264907 0 -0.121744 -0.287108 0 -0.145529 -0.281638 0 
-0.123527 -0.260738 0 -0.147377 -0.255952 0 -0.0518339 -0.27325 0 
-0.0769085 -0.266185 0 -0.0980506 -0.291034 0 -0.074157 -0.291795 0 
-0.0488919 -0.297408 0 -0.0259551 -0.274498 0 -0.0233957 -0.298009 0 
-0.00067506 -0.269089 0 -0.0252939 -0.251806 0 0.0498167 -0.299634 0 
0.0479826 -0.274632 0 0.00114974 -0.293963 0 0.0251613 -0.296648 0 
0.0242094 -0.271213 0 0.0763415 -0.255034 0 0.0529005 -0.250273 0 
0.0973178 -0.2741 0 0.0724861 -0.27953 0 0.13705 -0.275326 0 
0.13986 -0.25131 0 0.122841 -0.293462 0 0.114271 -0.261563 0 
0.100361 -0.298755 0 0.19274 -0.257273 0 0.192412 -0.278827 0 
0.165667 -0.283282 0 0.163987 -0.261038 0 0.245161 -0.262328 0 
0.244927 -0.291359 0 0.204272 -0.29974 0 0.218948 -0.260732 0 
0.222851 -0.283249 0 0.286463 -0.261878 0 0.264776 -0.272932 0 
0.279168 -0.292465 0 0.345989 -0.271236 0 0.322219 -0.270796 0 
0.302106 -0.281237 0 0.340407 -0.295528 0 0.395478 -0.277806 0 
[...]
POINT_DATA 2798
SCALARS id float
LOOKUP_TABLE default
2620 2621 2600 2601 2640 2641 2642 2643 2646 
2644 2647 2645 2651 2649 2650 2648 2652 2655 
2654 2653 2658 2657 2656 2659 2663 2661 2662 
2660 2667 2665 2666 2664 2669 2668 2671 2670 
2674 2672 2673 2675 2678 2679 2677 2681 2676 
2680 2682 2684 2685 2683 2688 2689 2687 2686 
2691 2693 2690 2692 2694 2697 2695 2696 2698 
2699 2700 2701 2703 2705 2702 2704 2706 2709 
2708 2707 2710 2712 2713 2711 2717 2714 2716 
2715 2720 2721 2718 2719 2723 2742 2722 2743 
2603 2623 2622 2602 1678 1661 1679 1660 1696 
1715 1714 1697 1733 1768 1750 1769 1732 1786 
1787 1805 1804 1823 1822 1841 1840 1859 1877 
1894 1876 1895 1858 1912 1913 1930 1931 1949 
1967 1948 1966 1985 2003 1984 2002 2039 2020 
2038 2021 2074 2056 2075 2057 2093 2092 2111 
2129 2110 2128 2147 2146 2165 2164 2182 2200 
2201 2183 2218 2236 2237 2219 2273 2255 2254 
2272 2291 2308 2290 2309 2327 2345 2344 2326 
2381 2362 2380 2363 2745 2744 2725 2724 2625 
2605 2624 2604 1663 1680 1662 1717 1699 1698 
1716 1734 1752 1770 1751 1788 1789 1807 1806 
1825 1860 1842 1861 1843 1824 1878 1879 1897 
1896 1932 1914 1915 1933 1951 1969 1950 1968 
2005 2004 1986 1987 2022 2041 2040 2023 2058 
2077 2059 2076 2112 2114 2113 2095 2094 2131 
2148 2149 2130 2185 2166 2167 2184 2202 2203 
2221 2239 2238 2257 2220 2275 2274 2256 2310 
2311 2292 2293 2328 2346 2329 2347 2383 2382 
2364 2365 2746 2727 2726 2747 2607 2606 2627 
2626 1681 1682 1664 1700 1719 1735 1736 1718 
1754 1772 1771 1753 1826 1827 1808 1790 1809 
1845 1844 1863 1862 1881 1880 1898 1899 1934 
1917 1916 1935 1952 1970 1953 1971 1989 2006 
1988 2007 2025 2042 2043 2024 2061 2078 2060 
2079 2115 2097 2096 2116 2170 2133 2151 2132 
2150 2186 2188 2168 2187 2169 2206 2223 2205 
2222 2204 2258 2241 2240 2224 2242 2259 2277 
2260 2276 2313 2294 2312 2295 2296 2314 2330 
2348 2349 2331 2350 2332 2366 2385 2384 2367 
2728 2749 2748 2729 2608 2609 2628 2629 1665 
1666 1683 1702 1701 1720 1737 1738 1792 1791 
1755 1773 1828 1810 1847 1846 1864 1882 1900 
1937 1936 1918 1991 1972 1954 1973 1955 2027 
2009 1990 2008 2026 2045 2044 2063 2046 2098 
2099 2062 2080 2081 2118 2100 2135 2117 2153 
2137 2152 2136 2134 2155 2172 2171 2154 2191 
2207 2189 2173 2190 2226 2208 2225 2279 2261 
2243 2278 2315 2297 2298 2334 2351 2333 2316 
2368 2387 2386 2369 2751 2750 2730 2731 2611 
2630 2610 2631 1685 1668 1667 1684 1703 1739 
1722 1721 1756 1774 1775 1757 1793 1830 1812 
1829 1811 1865 1866 1867 1848 1884 1901 1885 
1902 1883 1919 1920 1939 1938 1956 1957 1974 
1975 1993 2011 2010 1992 2028 2030 2047 2048 
2029 2065 2064 2083 2082 2103 2101 2102 2119 
2121 2105 2104 2120 2122 2138 2139 2140 2156 
2123 2227 2209 2174 2157 2192 2263 2244 2262 
2245 2299 2282 2280 2281 2335 2300 2317 2370 
2353 2388 2389 2352 2752 2733 2753 2732 2613 
2632 2633 2612 1686 1670 1669 1704 1741 1723 
1740 1794 1776 1795 1759 1758 1777 1832 1813 
1831 1886 1868 1850 1869 1849 1922 1904 1923 
1903 1958 1921 1940 1959 1976 1994 1977 2012 
1995 1978 2013 1960 2014 1979 1996 2031 1997 
2015 2049 2084 2066 2085 2032 2067 2086 2050 
2069 2068 2033 2087 2106 2051 2070 2071 2088 
2053 2089 2141 2052 2159 2036 2158 2175 2176 
2210 2211 2228 2193 2264 2247 2265 2246 2229 
2283 2318 2336 2266 2371 2354 2372 2390 2755 
2734 2754 2735 2635 2634 2614 2615 1687 1705 
1706 1671 1743 1724 1725 1742 1796 1779 1760 
1778 1761 1815 1833 1816 1814 1852 1851 1834 
1870 1887 1871 1888 1905 1924 1906 1907 1925 
1941 1926 1909 1942 1943 80 1944 1927 1874 
1961 1785 1945 1962 1892 1980 1998 1910 1963 
1999 160 2017 1982 2016 1981 1857 1946 1964 
2034 1839 2035 180 2000 1 1821 2107 2124 
1911 2054 2177 1893 2072 2194 2142 2212 2125 
2230 2267 2248 2195 2284 2391 2337 2355 2301 
2373 2737 2756 2757 2736 2617 2636 2616 2637 
1689 1690 1688 1672 1707 1708 1726 1744 1691 
1762 1780 1727 1745 1746 1763 1797 1781 1798 
1783 1799 1817 1800 1835 1854 1853 1748 1889 
1836 1872 1855 1818 1801 1890 1837 1819 1856 
1908 1873 1891 1767 1731 1802 1713 1261 1749 
1580 1820 1600 1281 1803 40 100 1361 1541 
60 20 1561 1928 120 1521 140 1481 1838 
1441 1362 1581 1522 1929 1875 21 1461 280 
2090 320 2018 340 2178 2213 2160 2231 2285 
2338 2319 2739 2758 2738 2759 2566 2567 2564 
2565 2571 2569 2570 2568 2575 2573 2574 2572 
2578 2576 2579 2577 2582 2581 2580 2583 2587 
2585 2584 2586 2590 2588 2589 2591 2594 2595 
2592 2593 2597 2598 2599 2596 2618 2639 2619 
2638 1710 1673 1675 1674 1140 1120 1676 1709 
1180 1711 1728 1695 1692 1220 1694 1280 1693 
1782 1764 1729 1340 1765 1360 1730 1500 1747 
1040 1480 1712 1380 1784 1560 1081 1766 1241 
1520 1420 1440 1141 1460 1181 1540 1201 1161 
1122 1142 1321 1341 1301 1221 1183 1222 1282 
1620 1262 0 1242 1640 1381 1243 1401 1402 
1543 1421 1502 1542 1621 1601 220 1947 181 
240 2392 260 2249 2302 2143 2741 2760 2761 
2740 2762 2764 2765 2763 2769 2768 2767 2766 
2771 2770 2772 2773 2777 2775 2776 2774 2780 
2778 2779 2781 2785 2782 2784 2783 2786 2787 
2788 2789 2792 2790 2791 2793 2795 2794 2796 
2797 2395 2269 500 2163 341 2360 2341 2235 
2306 2377 2342 2324 640 2396 2199 2217 2253 
461 2307 840 680 2271 421 2325 700 2343 
481 660 800 2361 720 740 2378 860 561 
542 2289 1020 2379 761 780 2397 1080 1060 
721 1100 880 820 722 920 661 762 900 
1677 940 1200 1160 682 881 980 1240 1260 
861 802 1300 782 822 1001 1000 921 901 
1041 862 1320 941 1101 981 843 942 1121 
1400 922 1061 903 1002 962 1102 1021 1082 
982 1062 1022 1043 1083 1063 1023 1044 1182 
1162 1202 1103 1123 1203 1163 1223 1144 1184 
1164 1143 1302 1263 1322 1204 1283 1342 1442 
1303 1382 1501 1523 1562 1482 1582 2196 1544 
300 1483 1641 2232 201 2320 2356 2214 200 
2161 2215 41 2179 2250 2108 161 2303 2126 
141 2198 2251 2339 2374 2162 2180 2393 2234 
2357 2305 2252 2321 2216 2055 2375 2304 2323 
2287 2358 2109 2376 2270 2359 2394 460 2091 
400 480 261 420 520 281 321 2288 2127 
223 302 282 2145 580 560 540 2181 600 
361 362 441 620 401 342 442 381 363 
462 382 501 323 402 383 541 422 521 
423 443 482 403 463 601 522 581 621 
602 760 582 701 583 641 681 662 622 
642 702 623 960 643 781 703 683 821 
664 801 742 741 783 841 723 763 803 
744 842 824 784 804 823 882 902 961 
923 844 883 863 943 884 963 904 924 
983 944 1042 964 1024 984 1003 1004 1025 
1064 1045 1084 1105 1104 1065 1085 1124 1185 
1145 1205 1224 1225 1244 1284 1363 1383 1343 
1264 1422 1364 1462 1344 1323 1423 1403 1384 
1404 1463 1563 1503 1564 1602 1642 81 162 
61 1524 42 2144 2233 121 2197 182 1965 
2268 23 1983 83 143 2037 84 360 103 
2286 2001 163 2019 2073 380 440 2322 2340 
104 44 45 221 85 144 124 222 241 
183 165 202 242 203 301 204 166 262 
184 283 185 224 243 263 264 244 205 
225 322 303 245 284 344 304 324 305 
343 325 365 345 346 364 384 424 405 
404 502 483 425 444 464 484 523 503 
504 562 563 524 543 564 544 584 604 
603 585 565 624 663 625 644 605 665 
645 704 684 705 724 743 685 764 746 
745 725 766 786 805 785 765 864 846 
825 845 806 885 866 886 865 905 906 
926 925 965 945 946 966 1026 985 1005 
986 1046 1067 1106 1086 1066 1126 1165 1125 
1087 1186 1166 1146 1206 1245 1226 1207 1227 
1265 1304 1285 1305 1324 1365 1345 1325 1386 
1366 1346 1385 1405 1424 1443 1444 1464 1425 
1484 1583 1545 2 1622 1584 102 1603 101 
122 82 1623 22 142 3 1643 1644 123 
63 43 4 62 64 24 25 46 27 
7 65 86 66 105 67 164 106 125 
145 147 126 146 127 167 148 186 187 
207 227 206 226 265 246 266 267 286 
287 285 327 307 306 326 386 347 385 
366 406 427 407 426 445 466 446 465 
486 505 485 525 526 545 506 547 546 
566 567 586 607 587 626 606 627 666 
647 646 667 686 687 706 707 726 747 
727 768 767 787 788 827 807 826 847 
887 888 868 867 928 907 927 908 968 
948 947 967 1006 988 1007 987 1068 1048 
1047 1027 1108 1127 1089 1088 1107 1128 1167 
1147 1148 1187 1188 1208 1228 1229 1248 1247 
1246 1287 1266 1286 1267 1327 1307 1306 1326 
1367 1347 1368 1387 1406 1446 1426 1445 1407 
1465 1485 1466 1504 1486 1506 1525 1505 1585 
1546 1604 1565 1526 1624 1566 1586 1605 1606 
1626 1625 1645 1646 26 6 5 9 1649 
47 28 8 87 48 49 29 68 69 
89 88 108 129 109 107 149 168 169 
128 188 209 189 208 247 249 248 228 
229 269 268 289 288 328 309 308 329 
368 348 367 349 387 409 408 388 428 
429 447 448 467 487 488 468 507 508 
528 527 568 549 569 548 589 588 629 
628 608 609 668 649 648 669 708 709 
688 689 728 748 729 749 789 790 769 
809 829 828 808 848 869 889 849 890 
870 930 929 909 910 950 949 970 969 
1008 1009 989 1029 1070 1049 1069 1028 1110 
1109 1090 1150 1129 1149 1130 1209 1210 1168 
1169 1189 1230 1231 1250 1249 1289 1268 1269 
1288 1329 1328 1308 1309 1349 1348 1388 1369 
1408 1427 1409 1428 1449 1448 1447 1429 1467 
1487 1488 1468 1508 1527 1507 1528 1547 1548 
1567 1568 1587 1608 1588 1607 1647 1627 1628 
1648 1651 1650 10 11 31 50 51 30 
71 70 111 90 91 110 130 151 131 
170 150 191 171 231 210 190 211 230 
271 250 251 311 270 291 290 310 331 
350 330 351 370 369 371 390 389 410 
430 431 411 450 471 449 451 470 469 
489 490 510 509 550 530 529 551 590 
570 591 571 610 611 630 631 671 651 
670 650 691 690 711 710 750 751 730 
731 771 770 791 810 830 831 811 850 
851 871 891 892 931 932 912 911 951 
952 971 972 1010 991 990 1011 1031 1030 
1051 1050 1111 1071 1091 1112 1092 1132 1151 
1131 1190 1191 1171 1170 1232 1251 1211 1212 
1270 1290 1291 1271 1310 1331 1330 1311 1389 
1350 1371 1370 1351 1391 1410 1411 1390 1450 
1451 1431 1430 1491 1470 1489 1469 1490 1529 
1509 1531 1510 1530 1569 1570 1550 1549 1590 
1611 1589 1609 1630 1629 1631 1610 33 12 
32 13 53 72 52 73 92 93 113 
112 133 152 153 132 172 193 192 173 
213 232 212 233 252 273 272 253 293 
312 313 292 333 332 352 353 373 372 
392 391 412 413 432 433 453 472 452 
473 492 511 491 512 493 531 552 532 
553 573 572 592 593 633 612 613 632 
652 653 673 672 692 712 693 713 732 
753 752 733 773 772 792 793 832 833 
812 813 873 872 853 893 852 933 913 
973 953 993 992 1012 1013 1032 1052 1053 
1033 1073 1114 1072 1113 1093 1133 1152 1134 
1153 1173 1172 1193 1192 1213 1252 1253 1233 
1272 1292 1293 1273 1312 1313 1332 1333 1353 
1372 1352 1373 1412 1393 1392 1413 1433 1452 
1432 1453 1473 1471 1492 1493 1472 1512 1511 
1532 1513 1533 1573 1551 1572 1552 1553 1571 
1612 1593 1591 1592 1613 1632 1653 1652 1633 
14 15 34 35 75 74 55 54 115 
94 95 114 154 135 155 134 174 175 
195 194 215 234 235 255 214 295 275 
274 254 294 315 314 335 375 354 334 
355 374 415 395 393 394 435 434 455 
414 454 474 495 475 494 514 515 513 
533 534 555 535 554 575 574 594 595 
615 634 635 614 674 654 675 655 694 
714 715 695 735 734 755 754 775 794 
795 774 815 855 835 834 814 875 854 
894 874 895 915 934 914 935 955 974 
954 975 995 1014 994 1015 1035 1055 1054 
1034 1074 1115 1095 1094 1075 1135 1155 1175 
1154 1136 1214 1195 1215 1174 1194 1254 1235 
1234 1255 1274 1295 1294 1275 1314 1335 1334 
1315 1355 1374 1375 1354 1395 1394 1415 1414 
1454 1455 1434 1435 1475 1474 1494 1495 1514 
1535 1534 1515 1555 1554 1574 1575 1594 1595 
1614 1615 1634 1655 1635 1654 36 37 16 
57 77 76 97 56 117 96 116 137 
136 156 176 177 157 217 196 197 216 
256 237 236 257 277 276 297 296 337 
316 317 336 376 377 356 357 416 396 
397 417 437 456 457 436 476 497 496 
477 517 516 536 537 557 576 577 556 
617 597 596 636 616 657 637 656 677 
676 697 696 737 717 716 736 756 757 
777 816 796 797 776 817 856 836 837 
857 876 877 897 896 917 937 957 936 
916 976 977 956 997 1036 1037 1017 996 
1016 1056 1097 1076 1077 1057 1116 1137 1117 
1096 1156 1177 1176 1157 1197 1216 1196 1217 
1256 1257 1237 1236 1276 1297 1277 1296 1316 
1337 1336 1357 1317 1356 1376 1377 1397 1417 
1437 1416 1396 1436 1457 1456 1477 1496 1476 
1497 1517 1536 1557 1516 1537 1556 1577 1576 
1597 1637 1617 1616 1596 1636 1656 17 1657 
178 639 198 158 659 679 238 699 218 
258 739 719 278 318 298 779 759 338 
819 358 799 378 839 398 859 418 438 
879 899 939 919 458 478 498 959 979 
538 999 1019 518 598 578 1059 1039 558 
1079 618 1099 638 1119 658 1139 1159 678 
1179 698 1199 718 1219 1239 738 778 1259 
1279 758 798 1299 838 1319 818 858 1359 
1339 878 1399 918 898 1419 1379 958 938 
1439 1459 1499 1479 998 978 1539 1038 1058 
1519 1018 1559 1579 1098 1078 1619 1599 1118 
1639 1138 1158 1178 19 1659 1238 1218 1198 
39 59 1278 1258 99 79 1318 139 1298 
119 159 1358 179 1338 1378 1398 219 199 
259 1438 1418 239 1478 1458 279 299 1498 
1518 319 339 1538 359 1558 379 1578 1598 
399 419 459 1618 1638 439 18 479 1658 
499 38 519 58 78 539 98 559 579 
118 619 138 599 2398 2401 2399 2400 2404 
2403 2405 2402 2409 2408 2406 2407 2410 2411 
2413 2412 2417 2415 2414 2416 2420 2421 2419 
2418 2427 2423 2426 2422 2424 2425 2429 2430 
2428 2431 2434 2435 2433 2432 2437 2438 2439 
2436 2441 2442 2443 2440 2445 2446 2447 2444 
2448 2451 2450 2449 2455 2453 2454 2452 2457 
2458 2459 2456 2463 2461 2460 2462 2466 2464 
2465 2467 2469 2468 2470 2471 2473 2472 2474 
2475 2479 2481 2480 2477 2478 2476 2485 2484 
2483 2482 2486 2489 2487 2488 2493 2492 2490 
2491 2497 2496 2495 2494 2498 2499 2500 2501 
2504 2502 2505 2503 2509 2508 2507 2506 2511 
2512 2513 2510 2516 2514 2515 2517 2518 2520 
2519 2521 2524 2525 2522 2523 2527 2528 2529 
2526 2530 2531 2532 2533 2534 2535 2536 2537 
2538 2539 2540 2541 2543 2542 2544 2545 2546 
2547 2548 2551 2550 2549 2554 2555 2553 2552 
2558 2556 2557 2559 2560 2561 2562 2563 
FIELD FieldData 7
r 3 2798 float
-0.5125 -0.4875 0 -0.5125 -0.4625 0 -0.5375 -0.4875 0 
-0.5375 -0.4625 0 -0.487805 -0.4875 0 -0.487805 -0.4625 0 
-0.463415 -0.4875 0 -0.463415 -0.4625 0 -0.414634 -0.4875 0 
-0.439024 -0.4875 0 -0.414634 -0.4625 0 -0.439024 -0.4625 0 
-0.365854 -0.4625 0 -0.390244 -0.4625 0 -0.365854 -0.4875 0 
-0.390244 -0.4875 0 -0.341463 -0.4875 0 -0.317073 -0.4625 0 
-0.317073 -0.4875 0 -0.341463 -0.4625 0 -0.268293 -0.4875 0 
-0.292683 -0.4625 0 -0.292683 -0.4875 0 -0.268293 -0.4625 0 
-0.219512 -0.4625 0 -0.243902 -0.4625 0 -0.219512 -0.4875 0 
-0.243902 -0.4875 0 -0.170732 -0.4625 0 -0.195122 -0.4625 0 
-0.170732 -0.4875 0 -0.195122 -0.4875 0 -0.146341 -0.4625 0 
-0.146341 -0.4875 0 -0.121951 -0.4625 0 -0.121951 -0.4875 0 
-0.0731707 -0.4875 0 -0.097561 -0.4875 0 -0.097561 -0.4625 0 
-0.0731707 -0.4625 0 -0.0243903 -0.4875 0 -0.0243903 -0.4625 0 
-0.0487805 -0.4625 0 -1.86265e-08 -0.4625 0 -0.0487805 -0.4875 0 
-1.86265e-08 -0.4875 0 0.0243902 -0.4875 0 0.0487805 -0.4875 0 
0.0487805 -0.4625 0 0.0243902 -0.4625 0 0.097561 -0.4875 0 
0.097561 -0.4625 0 0.0731707 -0.4625 0 0.0731707 -0.4875 0 
0.121951 -0.4625 0 0.146341 -0.4625 0 0.121951 -0.4875 0 
0.146341 -0.4875 0 0.170732 -0.4875 0 0.195122 -0.4625 0 
0.170732 -0.4625 0 0.195122 -0.4875 0 0.219512 -0.4875 0 
0.219512 -0.4625 0 0.243902 -0.4875 0 0.243902 -0.4625 0 
0.268293 -0.4625 0 0.292683 -0.4625 0 0.268293 -0.4875 0 
0.292683 -0.4875 0 0.317073 -0.4875 0 0.341463 -0.4625 0 
0.341463 -0.4875 0 0.317073 -0.4625 0 0.365854 -0.4875 0 
0.390244 -0.4875 0 0.390244 -0.4625 0 0.365854 -0.4625 0 
0.439024 -0.4625 0 0.414634 -0.4875 0 0.439024 -0.4875 0 
0.414634 -0.4625 0 0.487805 -0.4875 0 0.487805 -0.4625 0 
0.463415 -0.4875 0 0.463415 -0.4625 0 0.5125 -0.4625 0 
0.5375 -0.4875 0 0.5125 -0.4875 0 0.5375 -0.4625 0 
-0.5375 -0.4125 0 -0.5125 -0.4125 0 -0.5125 -0.4375 0 
-0.5375 -0.4375 0 -0.465264 -0.434788 0 -0.488438 -0.411883 0 
-0.466783 -0.405284 0 -0.487835 -0.437423 0 -0.442169 -0.43792 0 
-0.421239 -0.410309 0 -0.418307 -0.43555 0 -0.44502 -0.412156 0 
-0.399647 -0.406951 0 -0.364424 -0.43854 0 -0.379702 -0.421892 0 
-0.362409 -0.404872 0 -0.395525 -0.43873 0 -0.340594 -0.437021 0 
-0.341618 -0.413049 0 -0.317919 -0.411156 0 -0.31621 -0.437288 0 
-0.295267 -0.409428 0 -0.29308 -0.436354 0 -0.272803 -0.410195 0 
-0.270063 -0.436816 0 -0.25043 -0.409623 0 -0.228312 -0.409433 0 
-0.201234 -0.436752 0 -0.224228 -0.436578 0 -0.205919 -0.410154 0 
-0.247006 -0.436548 0 -0.178506 -0.436407 0 -0.183543 -0.409281 0 
-0.155581 -0.437118 0 -0.161172 -0.410302 0 -0.138321 -0.411951 0 
-0.114351 -0.413437 0 -0.131687 -0.43769 0 -0.106844 -0.438073 0 
-0.0894145 -0.414218 0 -0.0641332 -0.414428 0 -0.0814157 -0.438218 0 
-0.0557659 -0.438233 0 -0.0112808 -0.415658 0 -0.0293271 -0.438573 0 
-0.00296822 -0.438367 0 -0.0379262 -0.415833 0 0.0498081 -0.438566 0 
0.0232008 -0.43833 0 0.0422126 -0.416074 0 0.0153118 -0.41533 0 
0.0696022 -0.416494 0 0.0765625 -0.438555 0 0.0980366 -0.417267 0 
0.125607 -0.416373 0 0.103725 -0.439029 0 0.130746 -0.438771 0 
0.15175 -0.414658 0 0.156944 -0.438276 0 0.177698 -0.415419 0 
0.183037 -0.438431 0 0.209401 -0.438901 0 0.235523 -0.438339 0 
0.230806 -0.414987 0 0.204682 -0.416203 0 0.261242 -0.438561 0 
0.286711 -0.438193 0 0.281977 -0.414502 0 0.256717 -0.41504 0 
0.334275 -0.415053 0 0.308003 -0.41506 0 0.312142 -0.438352 0 
0.337725 -0.43828 0 0.360587 -0.414915 0 0.388285 -0.438033 0 
0.363185 -0.438269 0 0.386459 -0.414202 0 0.412165 -0.414725 0 
0.437916 -0.414802 0 0.438689 -0.438347 0 0.413393 -0.438326 0 
0.488098 -0.413902 0 0.463582 -0.437888 0 0.488299 -0.438263 0 
0.463272 -0.413585 0 0.5375 -0.4125 0 0.5375 -0.4375 0 
0.5125 -0.4125 0 0.5125 -0.4375 0 -0.5125 -0.3625 0 
-0.5375 -0.3625 0 -0.5125 -0.3875 0 -0.5375 -0.3875 0 
-0.489231 -0.35755 0 -0.467796 -0.375194 0 -0.488651 -0.385158 0 
-0.426448 -0.357962 0 -0.449346 -0.356617 0 -0.446274 -0.385064 0 
-0.423407 -0.384401 0 -0.402444 -0.375745 0 -0.383417 -0.358771 0 
-0.363164 -0.373502 0 -0.382313 -0.389583 0 -0.34286 -0.385123 0 
-0.345336 -0.354882 0 -0.323501 -0.358955 0 -0.32052 -0.385214 0 
-0.301082 -0.354894 0 -0.253282 -0.382215 0 -0.275434 -0.383063 0 
-0.256361 -0.354643 0 -0.278478 -0.355811 0 -0.297824 -0.382076 0 
-0.231279 -0.381827 0 -0.234288 -0.354259 0 -0.211966 -0.355721 0 
-0.209039 -0.38303 0 -0.164329 -0.382971 0 -0.186763 -0.382095 0 
-0.189519 -0.355092 0 -0.166707 -0.355958 0 -0.143693 -0.358455 0 
-0.119959 -0.362844 0 -0.141815 -0.38524 0 -0.118345 -0.388155 0 
-0.0695439 -0.366294 0 -0.0686395 -0.39023 0 -0.0937217 -0.389874 0 
-0.0950652 -0.365688 0 -0.0430344 -0.392476 0 -0.017715 -0.369396 0 
-0.0171069 -0.392765 0 -0.043708 -0.368979 0 0.00901289 -0.39238 0 
0.0334087 -0.36999 0 0.00796069 -0.368783 0 0.0354932 -0.393351 0 
0.0899008 -0.396047 0 0.0827241 -0.350312 0 0.0853725 -0.373682 0 
0.0591289 -0.371158 0 0.0621674 -0.39432 0 0.111315 -0.372016 0 
0.143615 -0.391713 0 0.136218 -0.368427 0 0.117432 -0.394542 0 
0.190103 -0.371359 0 0.170422 -0.392152 0 0.162519 -0.369611 0 
0.197387 -0.394275 0 0.224813 -0.392365 0 0.215964 -0.371032 0 
0.244268 -0.370122 0 0.271288 -0.367623 0 0.277634 -0.390502 0 
0.298153 -0.367971 0 0.251813 -0.391974 0 0.323428 -0.370102 0 
0.330129 -0.392506 0 0.303164 -0.39212 0 0.384104 -0.39124 0 
0.378448 -0.369253 0 0.357222 -0.3924 0 0.35121 -0.370643 0 
0.410826 -0.391653 0 0.437111 -0.391651 0 0.406178 -0.369581 0 
0.433969 -0.369391 0 0.487581 -0.366244 0 0.488017 -0.389784 0 
0.462685 -0.389564 0 0.461098 -0.366473 0 0.5375 -0.3875 0 
0.5125 -0.3625 0 0.5125 -0.3875 0 0.5375 -0.3625 0 
-0.5375 -0.3125 0 -0.5375 -0.3375 0 -0.5125 -0.3125 0 
-0.5125 -0.3375 0 -0.469811 -0.343633 0 -0.468851 -0.309064 0 
-0.489081 -0.328146 0 -0.452468 -0.325597 0 -0.429992 -0.30527 0 
-0.405337 -0.346652 0 -0.408626 -0.319307 0 -0.43079 -0.332172 0 
-0.389471 -0.300574 0 -0.367612 -0.309398 0 -0.364729 -0.341351 0 
-0.385578 -0.32906 0 -0.304534 -0.328264 0 -0.308158 -0.302706 0 
-0.326841 -0.331783 0 -0.347519 -0.32278 0 -0.330642 -0.302221 0 
-0.284215 -0.302274 0 -0.281294 -0.328767 0 -0.261182 -0.300376 0 
-0.258871 -0.327246 0 -0.23823 -0.300021 0 -0.236385 -0.326906 0 
-0.213854 -0.328517 0 -0.215385 -0.301419 0 -0.167658 -0.329689 0 
-0.192473 -0.302085 0 -0.191088 -0.328432 0 -0.168664 -0.304121 0 
-0.143831 -0.332588 0 -0.119603 -0.338013 0 -0.14446 -0.30718 0 
-0.120315 -0.312846 0 -0.0961845 -0.316602 0 -0.0700254 -0.342191 0 
-0.0948552 -0.341524 0 -0.0720823 -0.317044 0 -0.0472276 -0.321662 0 
-0.018581 -0.345765 0 -0.0218946 -0.32196 0 -0.0443929 -0.345611 0 
0.00265911 -0.319456 0 0.0314257 -0.345897 0 0.00634169 -0.34448 0 
0.0271516 -0.321597 0 0.078817 -0.326739 0 0.0527045 -0.323389 0 