# vtk DataFile Version 4.0
vtk output
ASCII
DATASET POLYDATA
FIELD FieldData 4
domain 1 3 string
domain_min:-20|-15
domain_max:20|15
cell_size:0.05

variables 1 2 string
dt:0.000372678
T:2.13309

constants 1 10 string
xsize:2
ysize:1
csize:0.05
dx:0.0238095
h:0.025
rho0:1000
mass:0.566894
g:1|0
c:13.4164
CFL:0.2

functions 1 8 string
time:T=(T+dt)
continuity:rho_dot=((-(rho*sph_D00(v,mass,rho,Wp52220)))+(((0.1*c)*h)*sph_L00(rho,mass,rho,Wp52220)))
irho:rho=(rho+int1((rho_dot,dt))
EOS:p=(((c^2)*(rho-rho0))+10000)
euler:a=if((gid,(0*v),(((-((1/rho)*sph_G11(p,mass,rho,Wp52220)))+(0.01*sph_L00(v,mass,rho,Wp52220)))+g))
vel:v=(v+int1((a,dt))
pos:r=(r+int1((v,dt))
new_dt:dt=(CFL*min((sqrt(((h/fmax(magnitude((a)))),(h/c)))

POINTS 2798 float
-0.5375 -0.4875 0 -0.5375 -0.4625 0 -0.5125 -0.4875 0 
-0.5125 -0.4625 0 -0.487805 -0.4875 0 -0.487805 -0.4625 0 
-0.463415 -0.4875 0 -0.463415 -0.4625 0 -0.439024 -0.4625 0 
-0.414634 -0.4625 0 -0.439024 -0.4875 0 -0.414634 -0.4875 0 
-0.390244 -0.4875 0 -0.365854 -0.4875 0 -0.390244 -0.4625 0 
-0.365854 -0.4625 0 -0.317073 -0.4875 0 -0.317073 -0.4625 0 
-0.341463 -0.4625 0 -0.341463 -0.4875 0 -0.292683 -0.4625 0 
-0.268293 -0.4625 0 -0.268293 -0.4875 0 -0.292683 -0.4875 0 
-0.243902 -0.4625 0 -0.219512 -0.4625 0 -0.243902 -0.4875 0 
-0.219512 -0.4875 0 -0.195122 -0.4625 0 -0.170732 -0.4625 0 
-0.195122 -0.4875 0 -0.170732 -0.4875 0 -0.121951 -0.4875 0 
-0.146341 -0.4875 0 -0.146341 -0.4625 0 -0.121951 -0.4625 0 
-0.097561 -0.4875 0 -0.0731707 -0.4625 0 -0.097561 -0.4625 0 
-0.0731707 -0.4875 0 -1.86265e-08 -0.4875 0 -0.0243903 -0.4875 0 
-0.0487805 -0.4875 0 -0.0243903 -0.4625 0 -0.0487805 -0.4625 0 
-1.86265e-08 -0.4625 0 0.0487805 -0.4875 0 0.0243902 -0.4875 0 
0.0243902 -0.4625 0 0.0487805 -0.4625 0 0.097561 -0.4875 0 
0.0731707 -0.4875 0 0.0731707 -0.4625 0 0.097561 -0.4625 0 
0.121951 -0.4625 0 0.146341 -0.4625 0 0.146341 -0.4875 0 
0.121951 -0.4875 0 0.170732 -0.4875 0 0.195122 -0.4625 0 
0.170732 -0.4625 0 0.195122 -0.4875 0 0.219512 -0.4625 0 
0.219512 -0.4875 0 0.243902 -0.4875 0 0.243902 -0.4625 0 
0.268293 -0.4875 0 0.292683 -0.4875 0 0.268293 -0.4625 0 
0.292683 -0.4625 0 0.317073 -0.4625 0 0.341463 -0.4875 0 
0.317073 -0.4875 0 0.341463 -0.4625 0 0.365854 -0.4625 0 
0.365854 -0.4875 0 0.390244 -0.4875 0 0.390244 -0.4625 0 
0.414634 -0.4875 0 0.439024 -0.4875 0 0.414634 -0.4625 0 
0.439024 -0.4625 0 0.463415 -0.4625 0 0.463415 -0.4875 0 
0.487805 -0.4875 0 0.487805 -0.4625 0 0.5125 -0.4875 0 
0.5125 -0.4625 0 0.5375 -0.4875 0 0.5375 -0.4625 0 
-0.5125 -0.4375 0 -0.5375 -0.4125 0 -0.5375 -0.4375 0 
-0.5125 -0.4125 0 -0.490028 -0.435383 0 -0.488086 -0.408211 0 
-0.466489 -0.409534 0 -0.467816 -0.437866 0 -0.414879 -0.412223 0 
-0.437673 -0.408417 0 -0.425999 -0.438761 0 -0.447116 -0.432124 0 
-0.40275 -0.436085 0 -0.35925 -0.435426 0 -0.39104 -0.409045 0 
-0.38077 -0.43619 0 -0.368761 -0.408332 0 -0.336956 -0.437269 0 
-0.344945 -0.410662 0 -0.312255 -0.439038 0 -0.320855 -0.414134 0 
-0.28952 -0.40462 0 -0.293625 -0.428517 0 -0.274164 -0.439372 0 
-0.251012 -0.434924 0 -0.266634 -0.41181 0 -0.229501 -0.437099 0 
-0.244713 -0.406954 0 -0.222858 -0.40993 0 -0.20712 -0.435226 0 
-0.199962 -0.408812 0 -0.177563 -0.411898 0 -0.157735 -0.400502 0 
-0.162592 -0.433643 0 -0.184847 -0.438648 0 -0.11698 -0.437195 0 
-0.115276 -0.411131 0 -0.140992 -0.438049 0 -0.139222 -0.41301 0 
-0.0946358 -0.435689 0 -0.0918693 -0.408512 0 -0.0696796 -0.411297 0 
-0.0723105 -0.437598 0 -0.0504091 -0.434627 0 -0.0279234 -0.437817 0 
-0.0408796 -0.410784 0 -0.0180489 -0.4104 0 -0.00528865 -0.436265 0 
0.00551078 -0.410881 0 0.0403636 -0.436257 0 0.0286774 -0.410338 0 
0.0177028 -0.437263 0 0.0623727 -0.436537 0 0.0975396 -0.411394 0 
0.0509187 -0.408556 0 0.085516 -0.43727 0 0.073836 -0.411314 0 
0.147654 -0.413807 0 0.108723 -0.437044 0 0.1325 -0.437377 0 
0.122178 -0.412562 0 0.18283 -0.43772 0 0.173483 -0.415644 0 
0.15703 -0.438352 0 0.230655 -0.436897 0 0.225864 -0.408267 0 
0.203925 -0.41474 0 0.207251 -0.437957 0 0.249429 -0.417395 0 
0.281968 -0.437442 0 0.256993 -0.439023 0 0.279441 -0.415139 0 
0.307176 -0.43847 0 0.344366 -0.42006 0 0.332886 -0.438998 0 
0.308923 -0.41682 0 0.327503 -0.403177 0 0.39325 -0.415092 0 
0.387297 -0.438081 0 0.362236 -0.439206 0 0.368328 -0.413413 0 
0.413388 -0.439261 0 0.444722 -0.415088 0 0.440097 -0.439533 0 
0.419095 -0.417399 0 0.488381 -0.417123 0 0.485827 -0.440083 0 
0.466597 -0.404363 0 0.463305 -0.433904 0 0.5125 -0.4375 0 
0.5375 -0.4125 0 0.5125 -0.4125 0 0.5375 -0.4375 0 
-0.5125 -0.3625 0 -0.5125 -0.3875 0 -0.5375 -0.3875 0 
-0.5375 -0.3625 0 -0.452731 -0.390099 0 -0.48954 -0.353766 0 
-0.489127 -0.382943 0 -0.469949 -0.373488 0 -0.453732 -0.355555 0 
-0.411653 -0.35924 0 -0.434889 -0.373103 0 -0.41684 -0.387086 0 
-0.393401 -0.383457 0 -0.367473 -0.382984 0 -0.384201 -0.361403 0 
-0.352425 -0.362923 0 -0.341821 -0.387612 0 -0.311225 -0.393887 0 
-0.30328 -0.355856 0 -0.323246 -0.373086 0 -0.291422 -0.376277 0 
-0.252663 -0.352721 0 -0.274595 -0.355762 0 -0.269257 -0.384668 0 
-0.225253 -0.382966 0 -0.201743 -0.38259 0 -0.205548 -0.358259 0 
-0.229176 -0.355554 0 -0.247976 -0.379252 0 -0.168532 -0.364127 0 
-0.1793 -0.383557 0 -0.143357 -0.353652 0 -0.146792 -0.379167 0 
-0.124487 -0.387615 0 -0.120383 -0.362461 0 -0.0946503 -0.358891 0 
-0.0764634 -0.381906 0 -0.0539006 -0.391795 0 -0.0643956 -0.361312 0 
-0.0998875 -0.383693 0 -0.00776713 -0.360867 0 -0.027246 -0.35015 0 
-0.0404824 -0.371912 0 -0.022115 -0.385582 0 0.0496368 -0.38159 0 
0.0257266 -0.384534 0 0.0393536 -0.358525 0 0.0156974 -0.358375 0 
0.00226336 -0.385087 0 0.0723185 -0.385399 0 0.0782962 -0.363011 0 
0.0973737 -0.387097 0 0.124376 -0.389693 0 0.10839 -0.366592 0 
0.137598 -0.370414 0 0.157721 -0.356472 0 0.191418 -0.365172 0 
0.152974 -0.3921 0 0.185567 -0.39688 0 0.170687 -0.377358 0 
0.240292 -0.351249 0 0.239397 -0.38847 0 0.224322 -0.370205 0 
0.207236 -0.386147 0 0.2104 -0.350024 0 0.263275 -0.397231 0 
0.281101 -0.37783 0 0.286654 -0.355701 0 0.295361 -0.395695 0 
0.257132 -0.369854 0 0.315434 -0.381567 0 0.339267 -0.371962 0 
0.309913 -0.360405 0 0.370145 -0.367889 0 0.398957 -0.390466 0 
0.351712 -0.351341 0 0.375351 -0.389283 0 0.350097 -0.391891 0 
0.447521 -0.388824 0 0.427189 -0.36996 0 0.401273 -0.367148 0 
0.422726 -0.39441 0 0.481023 -0.372769 0 0.490681 -0.352132 0 
0.458049 -0.369548 0 0.488767 -0.392133 0 0.5375 -0.3875 0 
0.5375 -0.3625 0 0.5125 -0.3625 0 0.5125 -0.3875 0 
-0.5375 -0.3375 0 -0.5125 -0.3375 0 -0.5125 -0.3125 0 
-0.5375 -0.3125 0 -0.450133 -0.324007 0 -0.470873 -0.338854 0 
-0.472167 -0.309095 0 -0.490787 -0.323099 0 -0.419377 -0.324715 0 
-0.432639 -0.344005 0 -0.430743 -0.304118 0 -0.367908 -0.343948 0 
-0.378399 -0.322221 0 -0.356446 -0.309142 0 -0.398144 -0.338973 0 
-0.399786 -0.309354 0 -0.310482 -0.331423 0 -0.346297 -0.331382 0 
-0.327947 -0.314709 0 -0.300151 -0.307073 0 -0.330415 -0.349279 0 
-0.263715 -0.325217 0 -0.277659 -0.304462 0 -0.286034 -0.333355 0 
-0.240593 -0.328009 0 -0.220447 -0.305037 0 -0.245654 -0.302782 0 
-0.217216 -0.331538 0 -0.18623 -0.347639 0 -0.162134 -0.337039 0 
-0.195123 -0.324383 0 -0.172068 -0.315582 0 -0.13614 -0.328452 0 
-0.148521 -0.308055 0 -0.118251 -0.308616 0 -0.114186 -0.338879 0 
-0.0811232 -0.340833 0 -0.0972071 -0.321553 0 -0.0645506 -0.322097 0 
-0.0795384 -0.303524 0 -0.0507047 -0.299973 0 -0.0500207 -0.341985 0 
-0.00306292 -0.304322 0 -0.0138449 -0.327835 0 -0.035718 -0.31985 0 
0.0204497 -0.310057 0 0.0072667 -0.334585 0 0.0320721 -0.332685 0 
0.0445609 -0.301489 0 0.095992 -0.345778 0 0.0775909 -0.32977 0 
0.09533 -0.312497 0 0.0715171 -0.301904 0 0.0540223 -0.323548 0 
0.0597419 -0.349822 0 0.147597 -0.334363 0 0.1357 -0.313536 0 
0.126627 -0.348195 0 0.113995 -0.327604 0 0.178316 -0.34326 0 
0.168814 -0.320175 0 0.191264 -0.307477 0 0.199394 -0.329243 0 
0.228086 -0.330042 0 0.219462 -0.308429 0 0.296465 -0.300185 0 
0.285086 -0.328685 0 0.273323 -0.308466 0 0.252262 -0.322554 0 
0.264525 -0.343934 0 0.339402 -0.321987 0 0.316913 -0.310593 0 
0.307099 -0.332588 0 0.328735 -0.344512 0 0.383443 -0.349028 0 
0.382904 -0.317646 0 0.36438 -0.330865 0 0.355765 -0.304578 0 
0.423777 -0.347449 0 0.40247 -0.33711 0 0.435283 -0.300733 0 
0.439998 -0.325919 0 0.40032 -0.300983 0 0.416253 -0.31722 0 
0.449602 -0.348845 0 0.4895 -0.322517 0 0.471395 -0.339558 0 
0.462729 -0.316247 0 0.5125 -0.3375 0 0.5375 -0.3125 0 
0.5125 -0.3125 0 0.5375 -0.3375 0 -0.5375 -0.2625 0 
-0.5125 -0.2875 0 -0.5375 -0.2875 0 -0.5125 -0.2625 0 
-0.470502 -0.27695 0 -0.452536 -0.294884 0 -0.490049 -0.291162 0 
-0.451066 -0.263094 0 -0.490049 -0.260461 0 -0.412571 -0.259546 0 
-0.431295 -0.277354 0 -0.408322 -0.287018 0 -0.388471 -0.270209 0 
-0.365902 -0.264494 0 -0.379258 -0.293858 0 -0.353761 -0.285881 0 
-0.310802 -0.258565 0 -0.346302 -0.250062 0 -0.332579 -0.269862 0 
-0.327274 -0.292769 0 -0.303008 -0.283024 0 -0.28291 -0.272552 0 
-0.262845 -0.286263 0 -0.268326 -0.252261 0 -0.228393 -0.281413 0 
-0.247478 -0.267191 0 -0.217442 -0.256483 0 -0.202588 -0.274702 0 
-0.197327 -0.29866 0 -0.153341 -0.278568 0 -0.156168 -0.254865 0 
-0.181484 -0.265787 0 -0.173457 -0.290698 0 -0.101127 -0.290108 0 
-0.132522 -0.288333 0 -0.131834 -0.256139 0 -0.114369 -0.270451 0 
-0.089951 -0.259634 0 -0.0532574 -0.277026 0 -0.0763992 -0.278901 0 
-0.00278697 -0.276241 0 -0.045787 -0.252726 0 -0.0275359 -0.271075 0 
-0.0247474 -0.295373 0 0.0193731 -0.284777 0 0.0374616 -0.254894 0 
0.0132473 -0.257341 0 0.0429142 -0.277077 0 0.0653168 -0.254052 0 
0.0907137 -0.266286 0 0.067554 -0.278998 0 0.0967289 -0.287717 0 
0.11963 -0.297485 0 0.126804 -0.276515 0 0.113288 -0.257059 0 
0.184826 -0.266683 0 0.178108 -0.288104 0 0.155099 -0.29953 0 
0.162466 -0.256758 0 0.150548 -0.277093 0 0.209419 -0.262576 0 
0.207937 -0.286939 0 0.233274 -0.279587 0 0.243945 -0.299693 0 
0.233656 -0.254873 0 0.283542 -0.253873 0 0.265775 -0.285407 0 
0.289243 -0.276538 0 0.257313 -0.264632 0 0.310032 -0.251849 0 
[...]
POINT_DATA 2798
SCALARS id float
LOOKUP_TABLE default
2600 2601 2620 2621 2640 2641 2642 2643 2645 
2647 2644 2646 2648 2650 2649 2651 2654 2655 
2653 2652 2657 2659 2658 2656 2661 2663 2660 
2662 2665 2667 2664 2666 2670 2668 2669 2671 
2672 2675 2673 2674 2680 2678 2676 2679 2677 
2681 2684 2682 2683 2685 2688 2686 2687 2689 
2691 2693 2692 2690 2694 2697 2695 2696 2699 
2698 2700 2701 2702 2704 2703 2705 2707 2708 
2706 2709 2711 2710 2712 2713 2714 2716 2715 
2717 2719 2718 2720 2721 2722 2723 2742 2743 
2622 2603 2602 2623 1660 1697 1696 1678 1823 
1768 1732 1714 1786 1858 1840 1804 1913 1876 
1949 1894 1967 1966 1912 1930 1948 2093 1984 
2111 2129 2020 2147 2165 2184 2056 2038 2092 
2201 2074 2183 2110 2219 2237 2128 2146 2164 
2218 2291 2182 2310 2236 2329 2200 2254 2331 
2328 2272 2330 2350 2290 2309 2347 2327 2349 
2308 2346 2366 2365 2326 2364 2345 2348 2368 
2344 2383 2362 2363 2370 2390 2386 2380 2371 
2382 2389 2381 2367 2387 2384 2388 2385 2724 
2745 2725 2744 2625 2624 2604 2605 1750 1679 
1661 1715 1787 1842 1805 1841 1822 1877 1859 
1914 1931 1985 2004 1986 2003 2075 2002 2057 
2130 2148 2167 2131 2112 2203 2166 2221 2202 
2220 2239 2257 2256 2255 2275 2238 2312 2292 
2274 2273 2332 2313 2300 2315 2311 2316 2317 
2333 2334 2336 2335 2248 2318 2352 2351 2353 
60 2369 2284 2354 2195 2337 1620 1460 2372 
1461 340 0 1122 1101 2231 1281 2090 2267 
280 1341 2213 2391 2301 320 2373 2355 2746 
2747 2727 2726 2606 2626 2627 2607 1806 1733 
1716 1662 1843 1824 1825 1895 1896 1933 1860 
1861 2022 1932 2005 2040 1950 2039 2058 2021 
2094 2113 2076 2149 2185 2222 2186 2204 2240 
2223 2241 2258 2276 2259 2294 2277 2278 2293 
2298 2296 2295 2299 2314 2282 2265 2230 2125 
2018 2212 2247 2283 2142 1441 2266 21 1875 
1362 1521 1481 100 1561 1820 1541 1928 1161 
20 1540 1261 1181 1201 1420 1520 1141 1241 
1221 1400 1729 1121 1766 1440 1183 1081 1321 
1001 2728 2749 2729 2748 2609 2628 2608 2629 
1734 1769 1698 1751 1680 1844 1788 1862 1879 
1915 1878 1968 2024 1951 1987 2023 2041 2059 
2077 2078 2095 2096 2114 2132 2150 2206 2205 
2169 2168 2242 2224 2207 2208 2225 2279 2260 
2246 2261 2280 2297 2281 2194 2263 2264 2054 
2072 2229 1929 1522 1581 1893 1946 140 120 
1911 1838 180 1361 40 1301 1 1963 1600 
1910 1731 1837 1580 1892 160 1749 1040 1802 
900 1853 1784 1713 1560 1767 1891 1873 1818 
1712 1300 2751 2731 2730 2750 2631 2610 2630 
2611 1717 1770 1752 1735 1807 1826 1881 1897 
1934 1953 1916 1880 2042 1969 1952 2061 2079 
2060 2115 2080 2097 2098 2133 2099 2116 2187 
2190 2189 2151 2188 2191 2173 2156 2174 2243 
2244 2140 2209 2262 2227 2245 2228 2226 2193 
2211 2124 2175 2177 2176 2036 2159 2053 1821 
2035 2107 1839 2070 1803 1857 1982 1964 1926 
1981 1980 1998 1942 462 1693 1120 1874 1979 
820 762 1909 1783 1180 542 1220 1675 1819 
2732 2753 2752 2733 2612 2613 2632 2633 1771 
1753 1789 1663 1898 1863 1917 1899 1989 1935 
1954 1970 1971 2025 1988 2006 2026 2007 2045 
2062 2044 2027 2043 2063 2081 2046 2028 2010 
2117 2029 2047 2064 2134 2172 2170 2135 2100 
2152 2155 2136 2123 2139 2171 2153 2154 2192 
2210 2089 2157 2158 2052 2121 2119 2141 2068 
2122 2103 2087 2071 2105 2085 2106 2088 2000 
2050 2017 2034 2033 2051 2016 1908 1785 1890 
1856 1997 1709 1962 80 1080 1945 2325 2145 
2755 2754 2734 2735 2635 2634 2615 2614 1808 
1718 1790 1699 1900 1918 1882 1864 1901 1972 
1955 1936 1919 1973 2008 1990 1974 1991 2009 
1956 1924 1992 1957 1905 1975 1993 1977 1958 
2030 2082 1817 1959 1835 2011 2065 1941 2101 
2012 1852 1816 1711 2120 2083 2138 2048 1925 
1798 2137 1705 1689 1851 1780 1723 2066 1960 
2118 2104 1797 2013 2084 2014 2015 1944 2049 
2102 1708 1978 2032 1100 2069 2086 1999 1961 
2067 2306 2288 1676 1889 1927 2737 2757 2756 
2736 2636 2616 2617 2637 1700 1845 1827 1772 
1681 1846 1883 1809 1865 1920 1937 1902 1866 
1829 1885 1938 1939 1903 1867 220 1921 1848 
1792 1976 1868 1940 1849 1667 1831 1904 1811 
1923 1922 1870 1887 1830 1813 1739 1758 1869 
1871 1794 1781 1834 1722 1994 1832 1741 1850 
1995 1886 1727 1777 1776 1775 1670 1779 1795 
2215 1815 404 1142 1740 1742 1282 2320 2234 
1673 1746 2357 1906 2232 1745 2303 1283 1799 
2031 1140 1674 1814 1888 1762 1695 1710 2323 
1996 2759 2758 2738 2739 2567 2566 2564 2565 
2569 2568 2570 2571 2575 2574 2572 2573 2576 
2577 2579 2578 2580 2583 2582 2581 2587 2585 
2584 2586 2590 2591 2588 2589 2593 2594 2595 
2592 2599 2598 2597 2596 2639 2638 2619 2618 
1665 1719 1664 1736 1701 1320 1682 1737 1683 
1754 1884 1828 1666 1847 1720 1810 1738 862 
1102 1791 1601 1062 1755 1773 1692 541 1702 
1684 2285 1401 1669 2160 1021 1703 1677 1262 
2319 861 1793 1222 1685 1812 2338 260 1774 
2181 1721 980 2374 1757 124 2392 641 920 
2356 1756 2250 1686 901 264 1704 843 240 
2143 1061 463 1000 742 2251 783 343 681 
940 1760 1691 382 2214 1726 2377 1671 2361 
2761 2741 2740 2760 2765 2764 2763 2762 2766 
2769 2767 2768 2773 2771 2772 2770 2775 2774 
2777 2776 2780 2781 2778 2779 2784 2783 2785 
2782 2789 2788 2787 2786 2793 2792 2790 2791 
2796 2795 2797 2794 2199 181 1020 983 2341 
761 806 163 2339 1480 2360 2270 2037 1855 
2304 2307 2253 2321 2180 1690 2378 1500 341 
520 2055 780 1263 1730 1836 162 1801 1765 
1380 680 2289 421 1800 2109 720 1747 2342 
1564 1200 2217 1041 223 460 1242 802 2091 
141 482 1748 822 1260 881 1872 1907 921 
941 1782 1764 561 22 1854 263 1385 860 
420 981 281 1643 363 2269 1668 620 560 
1694 1202 1340 540 701 481 1240 101 362 
700 402 2178 381 682 423 1605 521 600 
501 302 123 241 84 4 321 1525 442 
721 102 401 740 2249 262 361 801 403 
1543 224 1182 621 2126 1778 1796 1523 2198 
2376 883 2397 1744 2359 1943 1947 1728 1759 
1725 1043 2375 1022 2252 800 2343 1184 2396 
1763 601 1707 2394 2271 2358 1743 1582 461 
41 640 1303 1542 1761 1672 1688 1382 2019 
2287 1223 1044 1063 503 366 2305 543 642 
1204 161 963 2235 2161 884 902 982 1042 
1185 2163 844 625 623 2393 2233 2395 840 
1144 764 1060 786 1422 1105 1483 1544 2108 
300 984 1004 904 605 1145 1302 1045 2197 
200 1064 1143 1983 845 1706 964 1602 1383 
1264 660 1641 1501 81 1224 1363 360 1106 
480 2268 2324 143 261 1344 42 61 1443 
83 1404 2340 1066 1364 2162 500 1563 182 
1403 3 221 1424 1384 1423 1360 2127 104 
1280 2379 2286 1160 43 2322 121 2001 422 
400 1604 122 441 1227 63 380 1965 103 
1325 1603 1585 1623 1286 62 1485 722 1565 
105 1504 144 282 6 1505 85 301 760 
242 283 962 323 703 222 903 304 1342 
661 1502 1833 781 1023 960 1322 1402 1687 
1621 804 922 961 1421 2302 1724 841 741 
1243 1003 602 803 923 2216 1082 2179 823 
1203 622 1162 201 1123 444 643 763 744 
483 683 1002 502 286 581 562 405 864 
664 385 863 943 1083 326 1103 544 684 
1640 663 464 1163 523 882 624 825 743 
603 2196 842 704 665 724 604 566 705 
766 546 1124 584 626 785 506 526 1024 
805 646 784 745 765 746 725 905 924 
687 1482 1086 1104 925 787 1164 985 1065 
887 1225 1025 1463 1562 945 1442 1125 906 
1087 965 868 907 1244 1085 986 1343 1503 
1047 1462 1345 1186 1046 1366 1323 1006 23 
967 1304 987 1067 1365 1007 1265 1207 1088 
1226 440 1524 1644 2144 1642 82 1622 1346 
1128 1187 1324 1266 1545 2 142 1305 1584 
1405 1406 1425 1583 1465 580 44 1426 1484 
25 1466 5 27 26 383 1645 24 1547 
184 203 1381 782 364 880 522 244 245 
723 582 324 342 344 284 443 305 165 
243 86 225 322 325 583 821 942 563 
285 662 147 702 146 67 125 185 365 
266 206 126 345 226 187 424 265 246 
306 148 384 208 386 227 346 228 189 
287 247 307 209 229 484 565 504 824 
327 564 288 485 644 268 645 425 347 
524 446 585 505 465 486 426 525 545 
487 547 466 685 507 467 527 686 586 
666 606 885 706 866 944 826 865 627 
886 1084 807 867 846 767 788 827 848 
727 668 748 847 689 728 849 768 966 
888 709 1126 926 1165 869 947 1205 1005 
946 948 870 908 1026 927 890 909 928 
1027 1284 968 2073 1206 1245 1166 1285 1127 
1246 1109 1069 1167 1049 1147 1464 1208 1267 
1148 1247 1444 1228 1209 1387 1367 1306 1445 
1624 1486 1347 1446 45 1368 1546 64 1625 
1567 1487 1427 1566 1506 1428 1586 1468 1448 
183 65 204 66 1527 1647 46 166 1627 
202 303 186 7 47 205 164 1569 1549 
1628 1608 1589 87 8 1648 145 106 28 
1649 167 48 127 49 88 68 29 207 
107 108 69 89 168 128 129 149 188 
170 267 169 248 150 210 190 249 269 
289 406 329 445 250 309 328 308 407 
348 387 367 447 427 368 388 408 448 
488 468 449 607 567 469 647 587 508 
568 588 549 726 747 707 569 667 608 
648 590 628 589 629 688 708 649 669 
670 729 671 828 690 808 749 789 850 
829 769 889 830 790 809 891 851 810 
871 988 1107 1068 910 1146 949 1028 1008 
1108 1009 1089 989 1048 1030 1010 1090 1029 
1050 1129 1070 1110 1188 1149 1130 1091 1386 
1168 1287 1111 1229 1326 1307 1248 1407 1327 
1288 1268 1328 1467 1348 1388 1408 1447 1409 
1369 1526 1488 1646 1507 1626 1548 1606 1528 
1508 1607 1587 1568 1529 1509 1588 1510 1530 
1511 1491 1570 1531 1609 1550 1610 1629 1590 
1591 1571 1630 1611 1631 9 1650 10 1651 
30 51 70 31 50 90 71 91 109 
110 151 131 111 130 133 152 132 171 
211 230 172 191 173 192 231 270 232 
212 271 349 310 251 290 330 389 369 
291 350 409 428 370 390 429 430 410 
548 489 470 450 509 510 528 490 491 
550 511 529 530 570 609 551 610 571 
591 631 650 651 611 630 711 691 672 
710 730 731 750 751 771 770 791 812 
831 811 792 929 872 852 892 930 911 
912 931 969 970 950 1011 991 990 951 
1051 1012 1031 1032 992 1092 1071 1093 1052 
1112 1132 1131 1113 1150 1210 1170 1151 1169 
1189 1230 1269 1249 1211 1190 1250 1290 1309 
1289 1308 1330 1310 1291 1329 1270 1349 1370 
1350 1429 1331 1311 1389 1449 1430 1489 1410 
1469 1450 1490 1470 1471 1472 1493 1492 1473 
1512 1551 1513 1532 1572 1573 1552 1592 1632 
1613 1612 1593 1653 1652 1633 13 33 11 
12 52 32 73 72 53 92 112 134 
113 93 153 174 175 154 155 194 193 
214 213 234 233 273 272 252 253 293 
292 312 311 352 332 331 351 391 372 
371 392 411 412 432 451 431 471 472 
452 473 512 493 492 513 553 552 532 
531 572 593 592 573 613 612 633 652 
653 632 692 693 674 673 732 712 733 
713 753 752 773 772 813 793 832 854 
853 833 874 914 894 893 873 932 933 
913 953 952 972 973 971 993 1033 1034 
1013 1054 1053 1073 1072 1074 1114 1134 1133 
1094 1152 1153 1172 1171 1212 1191 1192 1231 
1252 1232 1251 1233 1271 1272 1293 1292 1312 
1313 1332 1351 1372 1352 1371 1391 1412 1431 
1390 1411 1451 1432 1452 1515 1494 1535 1474 
1514 1555 1534 1533 1575 1615 1574 1595 1553 
1554 1655 1594 1635 1614 1634 15 1654 35 
14 75 34 55 74 95 54 115 156 
94 215 135 114 176 195 276 196 296 
295 235 275 255 314 315 254 375 274 
294 374 354 333 313 415 353 395 394 
373 414 393 435 434 455 454 475 433 
413 495 515 474 453 555 534 494 514 
533 595 554 575 635 574 615 594 614 
634 675 655 654 695 715 694 755 775 
734 714 735 754 795 815 774 794 814 
896 835 855 916 935 875 834 955 975 
895 995 915 954 1015 1035 934 1055 994 
974 1075 1216 1095 1136 1014 1135 1155 1175 
1195 1214 1174 1154 1194 1115 1173 1255 1193 
1235 1234 1213 1295 1275 1254 1253 1273 1315 
1335 1274 1355 1294 1314 1375 1395 1354 1394 
1333 1334 1353 1435 1374 1393 1373 1413 1414 
1434 1392 1475 1433 1495 1453 1454 237 1616 
277 1636 1656 297 317 16 36 357 337 
56 96 397 417 76 136 116 437 257 
457 477 216 376 236 377 497 256 517 
336 537 316 557 356 335 577 334 355 
597 617 637 657 396 677 697 436 416 
476 717 456 737 777 496 516 757 797 
817 536 535 857 576 556 837 877 917 
616 897 596 636 656 937 957 997 676 
696 977 716 1017 736 1037 756 1057 796 
1077 776 1097 816 1117 836 1137 1197 856 
876 1177 956 936 1237 1217 976 1297 1277 
996 1016 1257 1036 1337 1317 1056 1377 1076 
1096 1357 1116 1417 1157 1397 1176 1437 1196 
1457 1156 1215 1497 1236 1477 1256 1276 1537 
1517 1577 1557 1296 1316 1617 1356 1597 1336 
1376 1637 1396 1657 1416 37 17 1436 1456 
57 77 97 1496 1476 1415 137 1516 1536 
117 177 1556 1455 157 1576 1596 217 197 
759 958 739 799 779 978 998 1018 1038 
819 839 1058 1098 859 1078 879 1118 919 
899 1138 939 1158 959 1198 999 979 1178 
1059 1039 1238 1019 1218 1079 1278 1099 1258 
1298 1338 1318 1139 1119 1179 1358 1378 1159 
1418 1199 1219 1398 1239 1259 1458 1438 1279 
1319 1299 1498 1478 1518 1558 1339 1359 1538 
1379 1598 1419 1399 1578 1439 1459 1618 1638 
1499 1479 1658 18 1519 78 58 38 1539 
98 1579 1559 118 1599 138 158 1619 178 
198 1639 1659 19 39 218 238 258 79 
99 298 278 59 338 119 139 318 358 
378 159 398 199 179 418 239 438 219 
458 478 279 498 259 538 319 518 299 
558 578 339 359 379 598 399 618 439 
419 658 638 459 479 698 678 718 738 
519 499 539 559 758 798 599 579 778 
818 639 619 838 878 659 858 679 898 
719 918 938 699 2401 2400 2398 2399 2405 
2403 2402 2404 2408 2409 2407 2406 2413 2411 
2410 2412 2414 2415 2417 2416 2421 2420 2419 
2418 2423 2427 2422 2425 2426 2424 2429 2428 
2431 2430 2435 2434 2433 2432 2438 2439 2436 
2437 2441 2443 2442 2440 2447 2446 2444 2445 
2450 2448 2449 2451 2454 2453 2452 2455 2456 
2457 2458 2459 2461 2462 2460 2463 2466 2465 
2464 2467 2470 2471 2468 2469 2473 2472 2474 
2475 2481 2476 2477 2478 2479 2480 2482 2483 
2484 2485 2489 2488 2487 2486 2491 2490 2493 
2492 2497 2496 2495 2494 2500 2498 2501 2499 
2503 2502 2505 2504 2507 2506 2508 2509 2511 
2510 2513 2512 2516 2515 2517 2514 2519 2521 
2520 2518 2525 2522 2523 2524 2529 2528 2526 
2527 2530 2531 2532 2533 2534 2535 2536 2537 
2538 2539 2540 2541 2542 2543 2547 2546 2544 
2545 2548 2549 2550 2551 2553 2554 2555 2552 
2558 2556 2557 2559 2560 2561 2562 2563 
FIELD FieldData 7
r 3 2798 float
-0.5375 -0.4875 0 -0.5375 -0.4625 0 -0.5125 -0.4875 0 
-0.5125 -0.4625 0 -0.487805 -0.4875 0 -0.487805 -0.4625 0 
-0.463415 -0.4875 0 -0.463415 -0.4625 0 -0.439024 -0.4625 0 
-0.414634 -0.4625 0 -0.439024 -0.4875 0 -0.414634 -0.4875 0 
-0.390244 -0.4875 0 -0.365854 -0.4875 0 -0.390244 -0.4625 0 
-0.365854 -0.4625 0 -0.317073 -0.4875 0 -0.317073 -0.4625 0 
-0.341463 -0.4625 0 -0.341463 -0.4875 0 -0.292683 -0.4625 0 
-0.268293 -0.4625 0 -0.268293 -0.4875 0 -0.292683 -0.4875 0 
-0.243902 -0.4625 0 -0.219512 -0.4625 0 -0.243902 -0.4875 0 
-0.219512 -0.4875 0 -0.195122 -0.4625 0 -0.170732 -0.4625 0 
-0.195122 -0.4875 0 -0.170732 -0.4875 0 -0.121951 -0.4875 0 
-0.146341 -0.4875 0 -0.146341 -0.4625 0 -0.121951 -0.4625 0 
-0.097561 -0.4875 0 -0.0731707 -0.4625 0 -0.097561 -0.4625 0 
-0.0731707 -0.4875 0 -1.86265e-08 -0.4875 0 -0.0243903 -0.4875 0 
-0.0487805 -0.4875 0 -0.0243903 -0.4625 0 -0.0487805 -0.4625 0 
-1.86265e-08 -0.4625 0 0.0487805 -0.4875 0 0.0243902 -0.4875 0 
0.0243902 -0.4625 0 0.0487805 -0.4625 0 0.097561 -0.4875 0 
0.0731707 -0.4875 0 0.0731707 -0.4625 0 0.097561 -0.4625 0 
0.121951 -0.4625 0 0.146341 -0.4625 0 0.146341 -0.4875 0 
0.121951 -0.4875 0 0.170732 -0.4875 0 0.195122 -0.4625 0 
0.170732 -0.4625 0 0.195122 -0.4875 0 0.219512 -0.4625 0 
0.219512 -0.4875 0 0.243902 -0.4875 0 0.243902 -0.4625 0 
0.268293 -0.4875 0 0.292683 -0.4875 0 0.268293 -0.4625 0 
0.292683 -0.4625 0 0.317073 -0.4625 0 0.341463 -0.4875 0 
0.317073 -0.4875 0 0.341463 -0.4625 0 0.365854 -0.4625 0 
0.365854 -0.4875 0 0.390244 -0.4875 0 0.390244 -0.4625 0 
0.414634 -0.4875 0 0.439024 -0.4875 0 0.414634 -0.4625 0 
0.439024 -0.4625 0 0.463415 -0.4625 0 0.463415 -0.4875 0 
0.487805 -0.4875 0 0.487805 -0.4625 0 0.5125 -0.4875 0 
0.5125 -0.4625 0 0.5375 -0.4875 0 0.5375 -0.4625 0 
-0.5125 -0.4375 0 -0.5375 -0.4125 0 -0.5375 -0.4375 0 
-0.5125 -0.4125 0 -0.490028 -0.435383 0 -0.488086 -0.408211 0 
-0.466489 -0.409534 0 -0.467816 -0.437866 0 -0.414879 -0.412223 0 
-0.437673 -0.408417 0 -0.425999 -0.438761 0 -0.447116 -0.432124 0 
-0.40275 -0.436085 0 -0.35925 -0.435426 0 -0.39104 -0.409045 0 
-0.38077 -0.43619 0 -0.368761 -0.408332 0 -0.336956 -0.437269 0 
-0.344945 -0.410662 0 -0.312255 -0.439038 0 -0.320855 -0.414134 0 
-0.28952 -0.40462 0 -0.293625 -0.428517 0 -0.274164 -0.439372 0 
-0.251012 -0.434924 0 -0.266634 -0.41181 0 -0.229501 -0.437099 0 
-0.244713 -0.406954 0 -0.222858 -0.40993 0 -0.20712 -0.435226 0 
-0.199962 -0.408812 0 -0.177563 -0.411898 0 -0.157735 -0.400502 0 
-0.162592 -0.433643 0 -0.184847 -0.438648 0 -0.11698 -0.437195 0 
-0.115276 -0.411131 0 -0.140992 -0.438049 0 -0.139222 -0.41301 0 
-0.0946358 -0.435689 0 -0.0918693 -0.408512 0 -0.0696796 -0.411297 0 
-0.0723105 -0.437598 0 -0.0504091 -0.434627 0 -0.0279234 -0.437817 0 
-0.0408796 -0.410784 0 -0.0180489 -0.4104 0 -0.00528865 -0.436265 0 
0.00551078 -0.410881 0 0.0403636 -0.436257 0 0.0286774 -0.410338 0 
0.0177028 -0.437263 0 0.0623727 -0.436537 0 0.0975396 -0.411394 0 
0.0509187 -0.408556 0 0.085516 -0.43727 0 0.073836 -0.411314 0 
0.147654 -0.413807 0 0.108723 -0.437044 0 0.1325 -0.437377 0 
0.122178 -0.412562 0 0.18283 -0.43772 0 0.173483 -0.415644 0 
0.15703 -0.438352 0 0.230655 -0.436897 0 0.225864 -0.408267 0 
0.203925 -0.41474 0 0.207251 -0.437957 0 0.249429 -0.417395 0 
0.281968 -0.437442 0 0.256993 -0.439023 0 0.279441 -0.415139 0 
0.307176 -0.43847 0 0.344366 -0.42006 0 0.332886 -0.438998 0 
0.308923 -0.41682 0 0.327503 -0.403177 0 0.39325 -0.415092 0 
0.387297 -0.438081 0 0.362236 -0.439206 0 0.368328 -0.413413 0 
0.413388 -0.439261 0 0.444722 -0.415088 0 0.440097 -0.439533 0 
0.419095 -0.417399 0 0.488381 -0.417123 0 0.485827 -0.440083 0 
0.466597 -0.404363 0 0.463305 -0.433904 0 0.5125 -0.4375 0 
0.5375 -0.4125 0 0.5125 -0.4125 0 0.5375 -0.4375 0 
-0.5125 -0.3625 0 -0.5125 -0.3875 0 -0.5375 -0.3875 0 
-0.5375 -0.3625 0 -0.452731 -0.390099 0 -0.48954 -0.353766 0 
-0.489127 -0.382943 0 -0.469949 -0.373488 0 -0.453732 -0.355555 0 
-0.411653 -0.35924 0 -0.434889 -0.373103 0 -0.41684 -0.387086 0 
-0.393401 -0.383457 0 -0.367473 -0.382984 0 -0.384201 -0.361403 0 
-0.352425 -0.362923 0 -0.341821 -0.387612 0 -0.311225 -0.393887 0 
-0.30328 -0.355856 0 -0.323246 -0.373086 0 -0.291422 -0.376277 0 
-0.252663 -0.352721 0 -0.274595 -0.355762 0 -0.269257 -0.384668 0 
-0.225253 -0.382966 0 -0.201743 -0.38259 0 -0.205548 -0.358259 0 
-0.229176 -0.355554 0 -0.247976 -0.379252 0 -0.168532 -0.364127 0 
-0.1793 -0.383557 0 -0.143357 -0.353652 0 -0.146792 -0.379167 0 
-0.124487 -0.387615 0 -0.120383 -0.362461 0 -0.0946503 -0.358891 0 
-0.0764634 -0.381906 0 -0.0539006 -0.391795 0 -0.0643956 -0.361312 0 
-0.0998875 -0.383693 0 -0.00776713 -0.360867 0 -0.027246 -0.35015 0 
-0.0404824 -0.371912 0 -0.022115 -0.385582 0 0.0496368 -0.38159 0 
0.0257266 -0.384534 0 0.0393536 -0.358525 0 0.0156974 -0.358375 0 
0.00226336 -0.385087 0 0.0723185 -0.385399 0 0.0782962 -0.363011 0 
0.0973737 -0.387097 0 0.124376 -0.389693 0 0.10839 -0.366592 0 
0.137598 -0.370414 0 0.157721 -0.356472 0 0.191418 -0.365172 0 
0.152974 -0.3921 0 0.185567 -0.39688 0 0.170687 -0.377358 0 
0.240292 -0.351249 0 0.239397 -0.38847 0 0.224322 -0.370205 0 
0.207236 -0.386147 0 0.2104 -0.350024 0 0.263275 -0.397231 0 
0.281101 -0.37783 0 0.286654 -0.355701 0 0.295361 -0.395695 0 
0.257132 -0.369854 0 0.315434 -0.381567 0 0.339267 -0.371962 0 
0.309913 -0.360405 0 0.370145 -0.367889 0 0.398957 -0.390466 0 
0.351712 -0.351341 0 0.375351 -0.389283 0 0.350097 -0.391891 0 
0.447521 -0.388824 0 0.427189 -0.36996 0 0.401273 -0.367148 0 
0.422726 -0.39441 0 0.481023 -0.372769 0 0.490681 -0.352132 0 
0.458049 -0.369548 0 0.488767 -0.392133 0 0.5375 -0.3875 0 
0.5375 -0.3625 0 0.5125 -0.3625 0 0.5125 -0.3875 0 
-0.5375 -0.3375 0 -0.5125 -0.3375 0 -0.5125 -0.3125 0 
-0.5375 -0.3125 0 -0.450133 -0.324007 0 -0.470873 -0.338854 0 
-0.472167 -0.309095 0 -0.490787 -0.323099 0 -0.419377 -0.324715 0 
-0.432639 -0.344005 0 -0.430743 -0.304118 0 -0.367908 -0.343948 0 
-0.378399 -0.322221 0 -0.356446 -0.309142 0 -0.398144 -0.338973 0 
-0.399786 -0.309354 0 -0.310482 -0.331423 0 -0.346297 -0.331382 0 
-0.327947 -0.314709 0 -0.300151 -0.307073 0 -0.330415 -0.349279 0 
-0.263715 -0.325217 0 -0.277659 -0.304462 0 -0.286034 -0.333355 0 
-0.240593 -0.328009 0 -0.220447 -0.305037 0 -0.245654 -0.302782 0 
-0.217216 -0.331538 0 -0.18623 -0.347639 0 -0.162134 -0.337039 0 
-0.195123 -0.324383 0 -0.172068 -0.315582 0 -0.13614 -0.328452 0 
-0.148521 -0.308055 0 -0.118251 -0.308616 0 -0.114186 -0.338879 0 
-0.0811232 -0.340833 0 -0.0972071 -0.321553 0 -0.0645506 -0.322097 0 
-0.0795384 -0.303524 0 -0.0507047 -0.299973 0 -0.0500207 -0.341985 0 
-0.00306292 -0.304322 0 -0.0138449 -0.327835 0 -0.035718 -0.31985 0 