# vtk DataFile Version 4.0
vtk output
ASCII
DATASET POLYDATA
FIELD FieldData 4
domain 1 3 string
domain_min:-20|-15
domain_max:20|15
cell_size:0.05

variables 1 2 string
dt:0.000372678
T:1.65014

constants 1 10 string
xsize:2
ysize:1
csize:0.05
dx:0.0238095
h:0.025
rho0:1000
mass:0.566894
g:1|0
c:13.4164
CFL:0.2

functions 1 8 string
time:T=(T+dt)
continuity:rho_dot=((-(rho*sph_D00(v,mass,rho,Wp52220)))+(((0.1*c)*h)*sph_L00(rho,mass,rho,Wp52220)))
irho:rho=(rho+int1((rho_dot,dt))
EOS:p=(((c^2)*(rho-rho0))+10000)
euler:a=if((gid,(0*v),(((-((1/rho)*sph_G11(p,mass,rho,Wp52220)))+(0.01*sph_L00(v,mass,rho,Wp52220)))+g))
vel:v=(v+int1((a,dt))
pos:r=(r+int1((v,dt))
new_dt:dt=(CFL*min((sqrt(((h/fmax(magnitude((a)))),(h/c)))

POINTS 2798 float
-0.5125 -0.4875 0 -0.5375 -0.4625 0 -0.5375 -0.4875 0 
-0.5125 -0.4625 0 -0.487805 -0.4875 0 -0.463415 -0.4875 0 
-0.463415 -0.4625 0 -0.487805 -0.4625 0 -0.439024 -0.4625 0 
-0.439024 -0.4875 0 -0.414634 -0.4875 0 -0.414634 -0.4625 0 
-0.390244 -0.4875 0 -0.390244 -0.4625 0 -0.365854 -0.4875 0 
-0.365854 -0.4625 0 -0.317073 -0.4875 0 -0.341463 -0.4875 0 
-0.317073 -0.4625 0 -0.341463 -0.4625 0 -0.268293 -0.4875 0 
-0.268293 -0.4625 0 -0.292683 -0.4875 0 -0.292683 -0.4625 0 
-0.219512 -0.4625 0 -0.219512 -0.4875 0 -0.243902 -0.4875 0 
-0.243902 -0.4625 0 -0.195122 -0.4875 0 -0.195122 -0.4625 0 
-0.170732 -0.4625 0 -0.170732 -0.4875 0 -0.121951 -0.4875 0 
-0.146341 -0.4625 0 -0.146341 -0.4875 0 -0.121951 -0.4625 0 
-0.0731707 -0.4625 0 -0.097561 -0.4875 0 -0.0731707 -0.4875 0 
-0.097561 -0.4625 0 -0.0487805 -0.4625 0 -0.0243903 -0.4875 0 
-1.86265e-08 -0.4875 0 -0.0487805 -0.4875 0 -0.0243903 -0.4625 0 
-1.86265e-08 -0.4625 0 0.0243902 -0.4625 0 0.0243902 -0.4875 0 
0.0487805 -0.4875 0 0.0487805 -0.4625 0 0.0731707 -0.4625 0 
0.0731707 -0.4875 0 0.097561 -0.4625 0 0.097561 -0.4875 0 
0.146341 -0.4625 0 0.121951 -0.4625 0 0.146341 -0.4875 0 
0.121951 -0.4875 0 0.170732 -0.4875 0 0.195122 -0.4875 0 
0.195122 -0.4625 0 0.170732 -0.4625 0 0.219512 -0.4875 0 
0.219512 -0.4625 0 0.243902 -0.4625 0 0.243902 -0.4875 0 
0.292683 -0.4625 0 0.268293 -0.4625 0 0.268293 -0.4875 0 
0.292683 -0.4875 0 0.317073 -0.4625 0 0.317073 -0.4875 0 
0.341463 -0.4625 0 0.341463 -0.4875 0 0.365854 -0.4875 0 
0.390244 -0.4625 0 0.390244 -0.4875 0 0.365854 -0.4625 0 
0.439024 -0.4625 0 0.414634 -0.4625 0 0.439024 -0.4875 0 
0.414634 -0.4875 0 0.463415 -0.4625 0 0.487805 -0.4875 0 
0.487805 -0.4625 0 0.463415 -0.4875 0 0.5375 -0.4875 0 
0.5125 -0.4875 0 0.5125 -0.4625 0 0.5375 -0.4625 0 
-0.5375 -0.4375 0 -0.5375 -0.4125 0 -0.5125 -0.4125 0 
-0.5125 -0.4375 0 -0.465504 -0.437326 0 -0.466414 -0.411356 0 
-0.488958 -0.436256 0 -0.489187 -0.409098 0 -0.442018 -0.436735 0 
-0.418467 -0.437258 0 -0.419469 -0.41183 0 -0.443186 -0.410448 0 
-0.371123 -0.409826 0 -0.394247 -0.437565 0 -0.395038 -0.412642 0 
-0.370716 -0.43627 0 -0.325135 -0.434621 0 -0.303334 -0.409753 0 
-0.303315 -0.437346 0 -0.347351 -0.437925 0 -0.3254 -0.406478 0 
-0.34809 -0.41188 0 -0.258556 -0.410448 0 -0.281791 -0.434102 0 
-0.260317 -0.437125 0 -0.281314 -0.405918 0 -0.211279 -0.410201 0 
-0.237695 -0.436256 0 -0.2158 -0.43544 0 -0.235651 -0.40906 0 
-0.174142 -0.429807 0 -0.189692 -0.407173 0 -0.193372 -0.43842 0 
-0.154361 -0.438497 0 -0.16162 -0.40713 0 -0.131471 -0.435969 0 
-0.139719 -0.410804 0 -0.108312 -0.437701 0 -0.115969 -0.411068 0 
-0.0875522 -0.4329 0 -0.0715482 -0.409153 0 -0.066309 -0.43753 0 
-0.0944927 -0.405156 0 -0.0429379 -0.437051 0 -0.00335046 -0.409871 0 
-0.0257939 -0.405735 0 -0.0216473 -0.434077 0 -0.0485092 -0.411962 0 
0.0447123 -0.437076 0 -6.15264e-05 -0.437158 0 0.0199341 -0.409659 0 
0.0437224 -0.410632 0 0.0222627 -0.435674 0 0.0683913 -0.409981 0 
0.0893822 -0.438873 0 0.0903947 -0.408292 0 0.0670029 -0.435185 0 
0.142419 -0.412025 0 0.120454 -0.407064 0 0.127654 -0.438915 0 
0.108144 -0.428789 0 0.186959 -0.40905 0 0.165202 -0.407964 0 
0.173275 -0.436098 0 0.151165 -0.436291 0 0.195316 -0.435883 0 
0.2183 -0.438002 0 0.243188 -0.437531 0 0.211097 -0.411752 0 
0.234952 -0.414303 0 0.290064 -0.437264 0 0.28845 -0.411976 0 
0.266833 -0.436643 0 0.262165 -0.412425 0 0.340671 -0.410261 0 
0.314527 -0.438413 0 0.311865 -0.41341 0 0.336556 -0.433922 0 
0.367535 -0.41723 0 0.35922 -0.439499 0 0.385566 -0.437352 0 
0.399523 -0.415907 0 0.411438 -0.439308 0 0.44202 -0.440748 0 
0.42784 -0.421293 0 0.432347 -0.401201 0 0.458879 -0.425882 0 
0.477626 -0.44175 0 0.485084 -0.401914 0 0.490829 -0.424895 0 
0.461138 -0.404496 0 0.5125 -0.4375 0 0.5375 -0.4375 0 
0.5375 -0.4125 0 0.5125 -0.4125 0 -0.5375 -0.3875 0 
-0.5375 -0.3625 0 -0.5125 -0.3875 0 -0.5125 -0.3625 0 
-0.48952 -0.353329 0 -0.466833 -0.358434 0 -0.489305 -0.381423 0 
-0.467227 -0.384995 0 -0.418051 -0.363042 0 -0.443456 -0.359405 0 
-0.41977 -0.386566 0 -0.44389 -0.384706 0 -0.357702 -0.362819 0 
-0.389555 -0.365056 0 -0.395632 -0.387891 0 -0.370438 -0.384768 0 
-0.315579 -0.352782 0 -0.345214 -0.385875 0 -0.325719 -0.375569 0 
-0.304652 -0.383395 0 -0.261922 -0.383799 0 -0.292706 -0.353532 0 
-0.254498 -0.359423 0 -0.283075 -0.376447 0 -0.227975 -0.358942 0 
-0.207892 -0.350387 0 -0.214193 -0.384752 0 -0.237838 -0.383081 0 
-0.159444 -0.367124 0 -0.174542 -0.386817 0 -0.195209 -0.374797 0 
-0.181242 -0.354289 0 -0.143241 -0.384469 0 -0.119088 -0.385295 0 
-0.129321 -0.360634 0 -0.105274 -0.355953 0 -0.0958134 -0.377708 0 
-0.0693474 -0.35925 0 -0.0730739 -0.383114 0 -0.00293152 -0.383301 0 
-0.0457619 -0.360471 0 -0.0200004 -0.351311 0 -0.0485068 -0.386306 0 
-0.0251993 -0.377979 0 0.00194718 -0.357275 0 0.0429367 -0.384413 0 
0.020217 -0.383359 0 0.024561 -0.356016 0 0.0471016 -0.35851 0 
0.0686412 -0.354217 0 0.0855004 -0.375241 0 0.0658209 -0.384938 0 
0.137447 -0.357 0 0.132269 -0.383338 0 0.104662 -0.388047 0 
0.113394 -0.363704 0 0.189772 -0.356988 0 0.155029 -0.383875 0 
0.177824 -0.379598 0 0.160315 -0.356949 0 0.235876 -0.362737 0 
0.249126 -0.391637 0 0.212094 -0.362192 0 0.200628 -0.386492 0 
0.225266 -0.387522 0 0.261152 -0.371578 0 0.279477 -0.390705 0 
0.298903 -0.379309 0 0.279841 -0.359012 0 0.339263 -0.352016 0 
0.319332 -0.392812 0 0.333879 -0.374173 0 0.310611 -0.359465 0 
0.352646 -0.390403 0 0.363286 -0.368066 0 0.378362 -0.398382 0 
0.385332 -0.375919 0 0.424257 -0.375942 0 0.40648 -0.393828 0 
0.433965 -0.35496 0 0.403273 -0.362249 0 0.450093 -0.383465 0 
0.48622 -0.38089 0 0.464482 -0.368113 0 0.489906 -0.356713 0 
0.5125 -0.3625 0 0.5375 -0.3875 0 0.5125 -0.3875 0 
0.5375 -0.3625 0 -0.5375 -0.3375 0 -0.5125 -0.3375 0 
-0.5125 -0.3125 0 -0.5375 -0.3125 0 -0.489643 -0.323496 0 
-0.465944 -0.30365 0 -0.469203 -0.331604 0 -0.400854 -0.319727 0 
-0.447006 -0.331568 0 -0.422315 -0.30978 0 -0.444252 -0.30402 0 
-0.40034 -0.343432 0 -0.425674 -0.337392 0 -0.375108 -0.322129 0 
-0.372565 -0.345132 0 -0.350183 -0.326175 0 -0.302275 -0.327549 0 
-0.325056 -0.32496 0 -0.339276 -0.348891 0 -0.347345 -0.300922 0 
-0.271477 -0.345352 0 -0.258978 -0.3194 0 -0.281072 -0.319758 0 
-0.239263 -0.305758 0 -0.241363 -0.336936 0 -0.210662 -0.301473 0 
-0.220973 -0.324867 0 -0.169339 -0.333834 0 -0.186915 -0.30657 0 
-0.162026 -0.311624 0 -0.195796 -0.32909 0 -0.138127 -0.319939 0 
-0.119906 -0.334084 0 -0.147323 -0.344765 0 -0.111479 -0.303497 0 
-0.0772361 -0.310504 0 -0.0855432 -0.343295 0 -0.0630922 -0.330551 0 
-0.05049 -0.305893 0 -0.098532 -0.321975 0 -0.00962258 -0.327299 0 
-0.0288682 -0.313886 0 -0.0407083 -0.336395 0 0.0125835 -0.330323 0 
0.0295849 -0.305651 0 0.0367022 -0.330907 0 0.00704006 -0.302627 0 
0.084271 -0.325937 0 0.0766279 -0.301946 0 0.0928449 -0.349043 0 
0.0598392 -0.329731 0 0.0535104 -0.304215 0 0.140537 -0.332466 0 
0.131444 -0.307907 0 0.107286 -0.315256 0 0.115973 -0.337008 0 
0.180769 -0.30684 0 0.159705 -0.319794 0 0.174938 -0.33828 0 
0.196832 -0.326688 0 0.214701 -0.308312 0 0.217305 -0.338631 0 
0.235835 -0.325995 0 0.275495 -0.302752 0 0.251804 -0.345844 0 
0.294142 -0.314578 0 0.25103 -0.307955 0 0.291117 -0.339207 0 
0.267795 -0.329782 0 0.343678 -0.305641 0 0.319735 -0.31284 0 
0.31709 -0.336413 0 0.344781 -0.328827 0 0.366359 -0.345401 0 
0.398731 -0.319473 0 0.389764 -0.34296 0 0.371086 -0.320754 0 
0.417174 -0.338218 0 0.429698 -0.31959 0 0.466054 -0.304719 0 
0.489082 -0.319954 0 0.478076 -0.338127 0 0.453948 -0.345906 0 
0.453045 -0.322636 0 0.5125 -0.3125 0 0.5125 -0.3375 0 
0.5375 -0.3125 0 0.5375 -0.3375 0 -0.5375 -0.2875 0 
-0.5375 -0.2625 0 -0.5125 -0.2625 0 -0.5125 -0.2875 0 
-0.451938 -0.272377 0 -0.472967 -0.27698 0 -0.490723 -0.262854 0 
-0.489665 -0.295754 0 -0.431886 -0.279681 0 -0.427329 -0.251377 0 
-0.410455 -0.28301 0 -0.405353 -0.257129 0 -0.384249 -0.267313 0 
-0.36999 -0.296672 0 -0.361968 -0.271877 0 -0.392561 -0.295512 0 
-0.300574 -0.298875 0 -0.332563 -0.250077 0 -0.314351 -0.274247 0 
-0.338686 -0.275205 0 -0.32355 -0.299938 0 -0.272135 -0.259561 0 
-0.25762 -0.288202 0 -0.278357 -0.292227 0 -0.291609 -0.268792 0 
-0.203559 -0.275468 0 -0.229169 -0.283438 0 -0.224478 -0.258593 0 
-0.249246 -0.264193 0 -0.18134 -0.282059 0 -0.175174 -0.25693 0 
-0.152345 -0.261945 0 -0.158062 -0.287352 0 -0.134499 -0.295665 0 
-0.110587 -0.256225 0 -0.130569 -0.270922 0 -0.105479 -0.280814 0 
-0.0571883 -0.283356 0 -0.0827994 -0.263593 0 -0.0824165 -0.288577 0 
-0.0563419 -0.260247 0 -0.0130905 -0.294178 0 -0.0320546 -0.281803 0 
-0.0300432 -0.256762 0 -0.0071808 -0.266027 0 0.0127131 -0.275399 0 
0.0352337 -0.280526 0 0.0377572 -0.255353 0 0.0820948 -0.272122 0 
0.0595926 -0.278372 0 0.0607828 -0.251536 0 0.098093 -0.291953 0 
0.125481 -0.25142 0 0.10554 -0.263269 0 0.120896 -0.285169 0 
0.140199 -0.272544 0 0.197729 -0.290481 0 0.190463 -0.263295 0 
0.159021 -0.258653 0 0.153086 -0.295042 0 0.172249 -0.280416 0 
0.214776 -0.273321 0 0.227741 -0.251375 0 0.243897 -0.270638 0 
0.232384 -0.292587 0 0.263569 -0.281533 0 0.275461 -0.258444 0 
0.29063 -0.280725 0 0.337058 -0.252209 0 0.325384 -0.273398 0 
0.3033 -0.259116 0 0.311625 -0.29177 0 0.347108 -0.284736 0 
[...]
POINT_DATA 2798
SCALARS id float
LOOKUP_TABLE default
2620 2601 2600 2621 2640 2642 2643 2641 2645 
2644 2646 2647 2648 2649 2650 2651 2654 2652 
2655 2653 2658 2659 2656 2657 2663 2662 2660 
2661 2664 2665 2667 2666 2670 2669 2668 2671 
2675 2672 2674 2673 2677 2678 2680 2676 2679 
2681 2683 2682 2684 2685 2687 2686 2689 2688 
2693 2691 2692 2690 2694 2696 2697 2695 2698 
2699 2701 2700 2705 2703 2702 2704 2707 2706 
2709 2708 2710 2713 2712 2711 2717 2715 2716 
2714 2719 2720 2721 2718 2742 2722 2723 2743 
2602 2603 2623 2622 1678 1697 1660 1661 1696 
1714 1750 1715 1823 1732 1768 1786 1840 1913 
1858 1804 1877 1822 1949 1876 1894 1931 1985 
1912 1930 1967 1966 2003 1948 1984 2057 2020 
2093 2038 2111 2056 2147 2074 2129 2092 2183 
2184 2110 2165 2164 2128 2201 2219 2146 2237 
2200 2255 2182 2291 2273 2236 2218 2329 2310 
2272 2254 2290 2309 2308 2328 2330 2326 2347 
2327 2331 2349 2346 2350 2348 2365 2345 2344 
2364 2362 2380 2363 2383 2382 2381 2385 2384 
2367 2724 2744 2745 2725 2604 2605 2624 2625 
1698 1716 1662 1679 1806 1769 1787 1733 1842 
1824 1805 1841 1896 1859 1895 1914 1950 1933 
2005 1932 2022 2040 2004 1986 2039 2002 2021 
2058 2075 2112 2094 2131 2130 2167 2148 2202 
2185 2222 2166 2203 2221 2238 2220 2239 2257 
2276 2275 2256 2295 2292 2274 2293 2314 2311 
2312 2296 2300 2316 2315 2313 2332 2317 2333 
2334 2336 2318 2352 2353 2335 2351 2354 2366 
2369 2370 2368 2371 2372 2386 2387 2389 2388 
2727 2746 2726 2747 2606 2626 2627 2607 1680 
1752 1734 1844 1751 1807 1770 1825 1788 1862 
1843 1861 1915 1878 1860 1879 1968 1987 1951 
2024 2023 2060 2041 2077 2078 2096 2059 2095 
2113 2076 2132 2168 2149 2186 2205 2150 2223 
2206 2204 2240 2241 2258 2224 2277 2260 2294 
2259 2242 2297 2280 2279 2278 2264 2281 2298 
2299 2265 2282 2247 21 2283 2142 2125 2266 
2230 1481 1875 2248 2195 2284 340 2337 1461 
2267 2090 280 2355 2391 2390 2231 2729 2728 
2749 2748 2608 2609 2629 2628 1771 1735 1663 
1717 1789 1808 1826 1863 1899 1880 1898 1881 
1934 1935 1953 1916 1897 1988 1969 1952 1970 
2061 2042 2043 2006 2079 2080 2098 2097 2114 
2116 2115 2133 2187 2151 2169 2188 2207 2190 
2189 2191 2208 2225 2174 2244 2243 2226 2261 
2228 2245 2262 2263 2229 2054 2211 2246 2194 
2072 1893 1929 2212 2018 1522 1441 1561 1521 
120 1362 100 1460 1161 60 20 1101 1122 
0 1620 2301 320 2213 1341 2373 2730 2750 
2751 2731 2610 2611 2631 2630 1681 1718 1753 
1699 1827 1790 1772 1845 1917 1864 1900 1882 
1901 1971 1972 1954 1918 1989 2007 1990 2008 
2026 2045 2025 2044 2062 2063 2046 2028 2081 
2099 2117 2064 2082 2170 2134 2135 2172 2152 
2155 2173 2139 2156 2140 2123 2158 2192 2209 
2227 2193 2210 2175 2053 2177 2159 2036 2124 
1821 2035 2176 1581 2107 1911 1838 1946 140 
180 1928 1301 1361 1541 40 1141 1540 1281 
1420 1201 1221 1321 1183 1400 2752 2753 2733 
2732 2613 2633 2612 2632 1719 1700 1664 1682 
1809 1754 1736 1919 1865 1902 1884 1883 1846 
1955 1936 1937 1938 1956 1974 1973 2009 1992 
1991 2027 2010 1977 1993 2029 2011 1905 1959 
2047 2083 2030 2012 2065 2101 2153 2171 2100 
2136 2138 2120 2154 2137 2141 2122 2119 2089 
2157 2105 2052 2071 2087 2070 2106 2050 2033 
2088 2000 2051 2069 1839 2034 1964 1857 2017 
1803 1731 1 1982 1981 1600 1910 1820 1580 
1181 1261 1121 1766 1081 1440 1520 2755 2734 
2754 2735 2614 2634 2635 2615 1665 1683 1737 
1701 1810 1791 1847 1828 1848 1885 1866 1867 
1868 1920 1903 1939 1940 1957 1921 1975 1924 
1923 1976 1887 1817 1871 1834 1958 1852 1941 
1781 1711 1835 1960 1994 1995 1798 2048 2013 
1906 1925 2014 2118 1944 2066 2084 2103 2121 
2104 2049 2102 2086 2068 2085 2015 2067 80 
2032 1874 1999 1908 1890 1785 1856 2016 1693 
1980 1837 1926 1998 1892 160 1963 1749 1784 
1713 1241 1560 1802 1729 1767 1040 1001 2736 
2737 2757 2756 2617 2637 2616 2636 1666 1702 
1667 1720 1792 1755 1773 1774 1811 1830 1829 
1756 1793 1849 1831 1812 1813 1904 1869 1922 
1775 1794 1832 1760 1850 1870 1886 1851 1815 
1795 1816 1779 1673 1727 1689 2361 1797 1745 
1691 1674 1708 1746 1744 1814 1978 1799 1100 
1943 2031 1996 1140 1997 1961 1709 1927 1695 
1962 1945 1889 820 1710 462 1180 2325 1979 
762 1080 1676 1120 1909 1942 542 1783 1853 
900 1891 1675 1712 1819 1220 1873 601 1300 
1818 2739 2759 2738 2758 2564 2566 2565 2567 
2568 2569 2571 2570 2575 2572 2574 2573 2578 
2577 2579 2576 2582 2583 2580 2581 2586 2584 
2587 2585 2588 2589 2590 2591 2594 2592 2595 
2593 2597 2596 2599 2598 2618 2619 2638 2639 
1703 1684 1668 1669 1738 1704 1685 2143 1721 
1757 1686 1722 2250 1739 1758 2374 1741 1740 
1670 2234 1776 2251 1523 1777 1723 1283 1742 
2357 1780 1759 1687 1778 1705 2375 1833 1796 
2376 1726 2323 2359 1762 1724 2198 1671 41 
1725 1888 2377 1761 2343 2396 640 1707 2394 
2235 800 1743 2253 2270 1763 2306 2287 1728 
2145 1672 461 2307 1020 840 2019 2271 2341 
163 2288 2199 1060 2397 680 1801 1855 2289 
761 1480 2741 2760 2740 2761 2763 2762 2765 
2764 2767 2769 2768 2766 2771 2773 2772 2770 
2777 2775 2774 2776 2781 2780 2779 2778 2782 
2785 2784 2783 2789 2787 2786 2788 2791 2793 
2792 2790 2797 2794 2796 2795 1340 921 1694 
941 701 1102 1677 1062 1240 981 423 1202 
402 2285 682 1021 641 1401 861 2178 2319 
980 901 1262 801 1601 1222 1000 2160 742 
783 1061 220 2249 260 2338 1142 843 240 
2392 962 1282 2232 903 883 2320 2214 1381 
1182 2356 2302 1184 2215 1421 1543 2303 1322 
2126 1243 1203 1402 1947 923 1502 1342 1023 
1162 1621 1003 2252 1303 2305 2216 1123 1382 
1223 1582 201 983 2179 2358 181 1542 161 
2161 1185 2339 1688 2196 2395 1483 2163 2393 
2233 2360 2304 1422 2180 2055 2321 1983 2197 
341 162 1564 2109 1602 1706 2037 660 2378 
421 2342 42 2217 520 1690 780 460 1500 
2324 223 1730 1836 261 2091 482 1748 1380 
1765 720 561 1872 881 281 1764 1800 1907 
1200 1747 862 263 1041 1692 1242 1854 1260 
1782 802 541 363 822 1320 521 302 600 
2181 321 1585 62 740 501 381 124 262 
920 442 721 264 282 361 401 722 242 
85 224 222 283 463 621 880 323 661 
760 403 383 404 681 343 344 364 940 
703 304 960 305 522 284 582 602 781 
782 325 702 741 583 841 1082 683 961 
563 1002 942 804 662 821 723 922 1043 
803 763 823 642 744 1063 663 1022 1640 
1204 863 625 982 1044 1163 1103 1083 864 
764 902 943 1042 963 806 825 844 786 
904 1144 884 766 300 1024 845 1105 1064 
1143 1004 1124 1302 964 984 1045 1544 2108 
925 1145 1263 1641 200 1104 1106 1501 1482 
1562 1264 1383 1344 143 141 1363 2162 360 
1463 1443 61 1563 2268 81 1404 1366 500 
1424 2340 1385 182 83 480 22 3 2269 
860 2322 420 2127 2379 104 2286 1643 1160 
441 1360 63 1280 43 481 700 560 221 
540 101 362 1605 123 4 422 241 620 
1584 1504 1525 1565 1485 144 1505 44 25 
301 26 105 1624 580 5 45 6 1547 
1645 24 27 184 183 1567 203 66 204 
165 382 342 443 244 322 324 243 245 
303 225 205 147 365 186 206 285 185 
581 286 483 266 502 424 345 562 405 
444 622 366 385 503 643 543 386 664 
623 544 624 684 603 743 644 645 824 
604 565 584 704 882 605 665 546 585 
842 526 566 724 626 705 784 785 685 
805 725 765 745 746 787 924 905 866 
865 885 807 944 886 846 985 867 1025 
1084 1164 1065 945 1086 906 1224 965 1442 
1085 1066 1225 1046 1087 1125 1244 1165 1205 
1047 1343 1462 1403 1126 1186 1503 1423 1323 
1364 1365 1304 1384 1345 1207 1524 2001 23 
1227 1644 400 2073 121 82 1642 440 1965 
103 380 1604 84 1623 122 102 1545 2 
1603 142 1426 1425 1367 1484 1466 1465 1445 
1486 1467 1446 1546 1427 64 1566 1487 1625 
1586 1526 1506 1527 1507 1646 1606 1626 1627 
65 46 1647 1607 166 86 47 7 87 
67 164 202 125 146 106 145 167 88 
126 187 127 265 226 227 207 246 384 
209 306 208 247 326 267 228 287 346 
484 327 523 464 307 504 406 425 524 
485 445 347 446 465 564 407 426 525 
427 466 505 545 487 486 506 586 507 
547 646 666 607 567 686 606 627 647 
687 706 707 726 667 826 747 727 767 
668 688 728 788 887 708 827 868 768 
847 849 848 888 869 966 907 889 926 
946 986 1026 1005 947 967 1006 987 1088 
1067 1027 1007 1265 1226 1284 1107 1166 1128 
1245 1285 1206 1324 2144 1187 1622 1346 1325 
1266 1267 1286 1464 1305 1228 1583 1444 1405 
1406 1386 1387 1306 1347 1326 1327 1368 1288 
1329 1407 1328 1348 1388 1349 1428 1408 1447 
1429 1448 1409 1469 1468 1488 1449 1489 1528 
1548 1509 1508 1568 1549 1529 1588 1587 1608 
1569 1589 1628 1629 1648 8 1609 1649 28 
48 9 68 30 29 49 108 69 148 
107 188 129 168 128 189 170 150 169 
149 229 249 210 248 190 269 268 288 
289 308 329 328 270 290 309 367 310 
349 348 369 389 368 387 388 447 428 
408 409 468 449 448 467 488 469 508 
527 548 568 587 528 549 608 569 588 
609 648 628 589 629 649 650 669 670 
689 709 808 729 710 748 749 828 769 
789 830 850 809 829 870 927 908 890 
909 928 929 948 910 988 1008 968 949 
1146 1068 1089 1028 1108 1069 1048 1090 1109 
1049 1127 1110 1167 1129 1246 1147 1208 1188 
1168 1148 1229 1209 1247 1189 1210 1307 1248 
1287 1268 1250 1290 1308 1289 1269 1310 1309 
1311 1330 1291 1331 1350 1351 1369 1370 1371 
1390 1389 1430 1410 1450 1431 1411 1470 1471 
1451 1490 1491 1511 1510 1550 1551 1570 1531 
1530 1590 1571 1611 1610 1591 1630 1631 1651 
1650 10 31 11 50 89 51 70 90 
130 109 110 131 151 132 111 191 171 
152 172 230 212 211 231 232 251 250 
271 291 292 311 330 350 331 370 410 
390 391 371 429 450 430 411 431 490 
470 489 471 510 529 509 491 511 551 
570 550 530 571 591 590 611 630 631 
651 610 671 690 691 731 730 711 750 
770 751 771 791 790 810 811 831 851 
871 852 872 891 912 892 911 930 950 
931 951 969 971 989 990 970 1011 1010 
1029 1030 991 1009 1071 1050 1051 1070 1091 
1092 1130 1112 1111 1132 1149 1131 1150 1151 
1170 1190 1169 1211 1249 1230 1271 1232 1252 
1272 1251 1270 1292 1312 1293 1313 1333 1353 
1352 1332 1373 1392 1391 1372 1413 1433 1412 
1432 1472 1473 1453 1452 1513 1512 1493 1492 
1533 1532 1573 1553 1552 1613 1572 1612 1592 
1593 1633 1632 1652 1653 32 12 13 33 
52 53 72 71 73 93 92 112 91 
113 134 133 154 153 174 194 173 193 
192 213 214 252 253 272 234 233 313 
273 294 293 312 351 352 332 373 372 
393 392 412 433 413 432 473 472 451 
452 453 492 493 513 512 532 531 553 
552 573 593 592 572 612 652 613 632 
633 653 672 692 693 673 713 733 732 
712 772 773 753 752 793 792 812 813 
832 853 833 874 913 893 894 873 914 
932 933 952 972 973 953 992 1031 1012 
1013 993 1032 1033 1052 1053 1094 1072 1073 
1093 1113 1114 1134 1152 1153 1133 1172 1192 
1191 1171 1231 1212 1233 1253 1273 1295 1274 
1335 1314 1294 1315 1355 1334 1395 1375 1354 
1415 1393 1374 1394 1434 1435 1455 1414 1454 
1475 1495 1474 1515 1514 1535 1494 1534 1574 
1554 1575 1555 1594 1614 1615 1595 15 1634 
1654 1655 1635 14 35 55 34 74 95 
75 54 156 114 94 115 196 175 155 
176 135 215 195 276 235 296 255 275 
295 254 315 274 334 314 354 375 333 
353 374 395 415 435 414 394 454 455 
434 475 495 474 494 515 534 514 533 
554 555 575 574 595 615 594 614 635 
654 655 634 675 694 674 695 715 714 
735 734 754 774 755 775 795 835 814 
815 794 854 834 896 916 855 875 935 
895 955 934 995 975 915 994 974 1035 
954 1015 1075 1014 1055 1136 1095 1054 1034 
1074 1175 1115 1155 1135 1174 1154 1195 1173 
1193 1214 1235 1234 1254 1213 1275 1255 1497 
1316 1336 1477 1356 1537 1376 1517 1416 1557 
1577 1396 1617 1436 1597 1456 1657 1476 1637 
1496 37 1536 17 1516 1556 57 1576 77 
117 1596 1616 97 1636 157 1656 137 16 
36 197 177 76 56 96 237 217 136 
297 116 277 317 257 337 397 236 256 
357 216 417 437 336 377 457 356 376 
316 497 355 335 477 517 396 537 557 
436 577 416 476 597 456 617 657 516 
496 637 677 535 536 697 556 717 737 
576 757 616 596 777 797 656 837 636 
817 696 676 877 857 716 736 917 756 
897 937 776 796 957 977 816 997 836 
876 1037 1017 856 1057 936 956 1077 1097 
1117 996 976 1177 1036 1016 1137 1197 1056 
1217 1096 1076 1237 1116 1257 1156 1297 1176 
1277 1157 1196 1317 1337 1216 1194 1377 1357 
1215 1236 1417 1397 1256 1276 1437 1457 1296 
1339 278 298 1359 1379 318 358 1419 338 
1399 398 1459 1439 378 418 1479 438 1499 
458 478 1519 1539 498 1559 518 538 1599 
1579 558 578 1619 1639 1659 19 39 618 
598 638 59 79 658 99 678 698 119 
718 139 738 159 179 778 199 758 798 
818 219 838 239 279 259 299 878 858 
918 319 898 339 379 359 938 958 998 
399 419 439 978 1018 479 1058 459 1038 
519 1098 1078 499 1118 559 539 1138 1158 
599 1178 579 1198 619 639 659 1218 1278 
1258 699 679 1238 719 739 1318 1298 759 
1338 1358 779 1398 799 1378 819 1418 839 
859 1438 1498 899 1478 1458 879 919 1518 
939 1538 1558 959 979 1598 999 1578 1039 
1638 1618 1019 1059 1658 1079 18 38 58 
1119 1099 1159 98 1139 78 118 1199 138 
1179 178 1239 158 1219 218 1259 198 1279 
1299 1319 258 238 2398 2400 2401 2399 2404 
2402 2403 2405 2409 2406 2407 2408 2410 2412 
2413 2411 2417 2415 2414 2416 2418 2420 2419 
2421 2424 2427 2425 2426 2422 2423 2429 2431 
2430 2428 2432 2435 2434 2433 2437 2436 2439 
2438 2443 2442 2440 2441 2444 2445 2446 2447 
2448 2451 2450 2449 2453 2455 2452 2454 2458 
2456 2459 2457 2463 2461 2460 2462 2465 2467 
2466 2464 2469 2470 2468 2471 2473 2472 2474 
2475 2480 2477 2479 2478 2481 2476 2482 2483 
2484 2485 2487 2488 2486 2489 2493 2492 2490 
2491 2497 2496 2495 2494 2501 2499 2498 2500 
2504 2502 2505 2503 2509 2508 2507 2506 2511 
2510 2513 2512 2517 2515 2514 2516 2521 2520 
2518 2519 2523 2524 2525 2522 2527 2528 2529 
2526 2531 2530 2533 2532 2534 2535 2536 2537 
2538 2539 2541 2543 2542 2540 2544 2545 2546 
2547 2548 2549 2550 2551 2552 2554 2553 2555 
2558 2556 2557 2559 2560 2561 2562 2563 
FIELD FieldData 7
r 3 2798 float
-0.5125 -0.4875 0 -0.5375 -0.4625 0 -0.5375 -0.4875 0 
-0.5125 -0.4625 0 -0.487805 -0.4875 0 -0.463415 -0.4875 0 
-0.463415 -0.4625 0 -0.487805 -0.4625 0 -0.439024 -0.4625 0 
-0.439024 -0.4875 0 -0.414634 -0.4875 0 -0.414634 -0.4625 0 
-0.390244 -0.4875 0 -0.390244 -0.4625 0 -0.365854 -0.4875 0 
-0.365854 -0.4625 0 -0.317073 -0.4875 0 -0.341463 -0.4875 0 
-0.317073 -0.4625 0 -0.341463 -0.4625 0 -0.268293 -0.4875 0 
-0.268293 -0.4625 0 -0.292683 -0.4875 0 -0.292683 -0.4625 0 
-0.219512 -0.4625 0 -0.219512 -0.4875 0 -0.243902 -0.4875 0 
-0.243902 -0.4625 0 -0.195122 -0.4875 0 -0.195122 -0.4625 0 
-0.170732 -0.4625 0 -0.170732 -0.4875 0 -0.121951 -0.4875 0 
-0.146341 -0.4625 0 -0.146341 -0.4875 0 -0.121951 -0.4625 0 
-0.0731707 -0.4625 0 -0.097561 -0.4875 0 -0.0731707 -0.4875 0 
-0.097561 -0.4625 0 -0.0487805 -0.4625 0 -0.0243903 -0.4875 0 
-1.86265e-08 -0.4875 0 -0.0487805 -0.4875 0 -0.0243903 -0.4625 0 
-1.86265e-08 -0.4625 0 0.0243902 -0.4625 0 0.0243902 -0.4875 0 
0.0487805 -0.4875 0 0.0487805 -0.4625 0 0.0731707 -0.4625 0 
0.0731707 -0.4875 0 0.097561 -0.4625 0 0.097561 -0.4875 0 
0.146341 -0.4625 0 0.121951 -0.4625 0 0.146341 -0.4875 0 
0.121951 -0.4875 0 0.170732 -0.4875 0 0.195122 -0.4875 0 
0.195122 -0.4625 0 0.170732 -0.4625 0 0.219512 -0.4875 0 
0.219512 -0.4625 0 0.243902 -0.4625 0 0.243902 -0.4875 0 
0.292683 -0.4625 0 0.268293 -0.4625 0 0.268293 -0.4875 0 
0.292683 -0.4875 0 0.317073 -0.4625 0 0.317073 -0.4875 0 
0.341463 -0.4625 0 0.341463 -0.4875 0 0.365854 -0.4875 0 
0.390244 -0.4625 0 0.390244 -0.4875 0 0.365854 -0.4625 0 
0.439024 -0.4625 0 0.414634 -0.4625 0 0.439024 -0.4875 0 
0.414634 -0.4875 0 0.463415 -0.4625 0 0.487805 -0.4875 0 
0.487805 -0.4625 0 0.463415 -0.4875 0 0.5375 -0.4875 0 
0.5125 -0.4875 0 0.5125 -0.4625 0 0.5375 -0.4625 0 
-0.5375 -0.4375 0 -0.5375 -0.4125 0 -0.5125 -0.4125 0 
-0.5125 -0.4375 0 -0.465504 -0.437326 0 -0.466414 -0.411356 0 
-0.488958 -0.436256 0 -0.489187 -0.409098 0 -0.442018 -0.436735 0 
-0.418467 -0.437258 0 -0.419469 -0.41183 0 -0.443186 -0.410448 0 
-0.371123 -0.409826 0 -0.394247 -0.437565 0 -0.395038 -0.412642 0 
-0.370716 -0.43627 0 -0.325135 -0.434621 0 -0.303334 -0.409753 0 
-0.303315 -0.437346 0 -0.347351 -0.437925 0 -0.3254 -0.406478 0 
-0.34809 -0.41188 0 -0.258556 -0.410448 0 -0.281791 -0.434102 0 
-0.260317 -0.437125 0 -0.281314 -0.405918 0 -0.211279 -0.410201 0 
-0.237695 -0.436256 0 -0.2158 -0.43544 0 -0.235651 -0.40906 0 
-0.174142 -0.429807 0 -0.189692 -0.407173 0 -0.193372 -0.43842 0 
-0.154361 -0.438497 0 -0.16162 -0.40713 0 -0.131471 -0.435969 0 
-0.139719 -0.410804 0 -0.108312 -0.437701 0 -0.115969 -0.411068 0 
-0.0875522 -0.4329 0 -0.0715482 -0.409153 0 -0.066309 -0.43753 0 
-0.0944927 -0.405156 0 -0.0429379 -0.437051 0 -0.00335046 -0.409871 0 
-0.0257939 -0.405735 0 -0.0216473 -0.434077 0 -0.0485092 -0.411962 0 
0.0447123 -0.437076 0 -6.15264e-05 -0.437158 0 0.0199341 -0.409659 0 
0.0437224 -0.410632 0 0.0222627 -0.435674 0 0.0683913 -0.409981 0 
0.0893822 -0.438873 0 0.0903947 -0.408292 0 0.0670029 -0.435185 0 
0.142419 -0.412025 0 0.120454 -0.407064 0 0.127654 -0.438915 0 
0.108144 -0.428789 0 0.186959 -0.40905 0 0.165202 -0.407964 0 
0.173275 -0.436098 0 0.151165 -0.436291 0 0.195316 -0.435883 0 
0.2183 -0.438002 0 0.243188 -0.437531 0 0.211097 -0.411752 0 
0.234952 -0.414303 0 0.290064 -0.437264 0 0.28845 -0.411976 0 
0.266833 -0.436643 0 0.262165 -0.412425 0 0.340671 -0.410261 0 
0.314527 -0.438413 0 0.311865 -0.41341 0 0.336556 -0.433922 0 
0.367535 -0.41723 0 0.35922 -0.439499 0 0.385566 -0.437352 0 
0.399523 -0.415907 0 0.411438 -0.439308 0 0.44202 -0.440748 0 
0.42784 -0.421293 0 0.432347 -0.401201 0 0.458879 -0.425882 0 
0.477626 -0.44175 0 0.485084 -0.401914 0 0.490829 -0.424895 0 
0.461138 -0.404496 0 0.5125 -0.4375 0 0.5375 -0.4375 0 
0.5375 -0.4125 0 0.5125 -0.4125 0 -0.5375 -0.3875 0 
-0.5375 -0.3625 0 -0.5125 -0.3875 0 -0.5125 -0.3625 0 
-0.48952 -0.353329 0 -0.466833 -0.358434 0 -0.489305 -0.381423 0 
-0.467227 -0.384995 0 -0.418051 -0.363042 0 -0.443456 -0.359405 0 
-0.41977 -0.386566 0 -0.44389 -0.384706 0 -0.357702 -0.362819 0 
-0.389555 -0.365056 0 -0.395632 -0.387891 0 -0.370438 -0.384768 0 
-0.315579 -0.352782 0 -0.345214 -0.385875 0 -0.325719 -0.375569 0 
-0.304652 -0.383395 0 -0.261922 -0.383799 0 -0.292706 -0.353532 0 
-0.254498 -0.359423 0 -0.283075 -0.376447 0 -0.227975 -0.358942 0 
-0.207892 -0.350387 0 -0.214193 -0.384752 0 -0.237838 -0.383081 0 
-0.159444 -0.367124 0 -0.174542 -0.386817 0 -0.195209 -0.374797 0 
-0.181242 -0.354289 0 -0.143241 -0.384469 0 -0.119088 -0.385295 0 
-0.129321 -0.360634 0 -0.105274 -0.355953 0 -0.0958134 -0.377708 0 
-0.0693474 -0.35925 0 -0.0730739 -0.383114 0 -0.00293152 -0.383301 0 
-0.0457619 -0.360471 0 -0.0200004 -0.351311 0 -0.0485068 -0.386306 0 
-0.0251993 -0.377979 0 0.00194718 -0.357275 0 0.0429367 -0.384413 0 
0.020217 -0.383359 0 0.024561 -0.356016 0 0.0471016 -0.35851 0 
0.0686412 -0.354217 0 0.0855004 -0.375241 0 0.0658209 -0.384938 0 
0.137447 -0.357 0 0.132269 -0.383338 0 0.104662 -0.388047 0 
0.113394 -0.363704 0 0.189772 -0.356988 0 0.155029 -0.383875 0 
0.177824 -0.379598 0 0.160315 -0.356949 0 0.235876 -0.362737 0 
0.249126 -0.391637 0 0.212094 -0.362192 0 0.200628 -0.386492 0 
0.225266 -0.387522 0 0.261152 -0.371578 0 0.279477 -0.390705 0 
0.298903 -0.379309 0 0.279841 -0.359012 0 0.339263 -0.352016 0 
0.319332 -0.392812 0 0.333879 -0.374173 0 0.310611 -0.359465 0 
0.352646 -0.390403 0 0.363286 -0.368066 0 0.378362 -0.398382 0 
0.385332 -0.375919 0 0.424257 -0.375942 0 0.40648 -0.393828 0 
0.433965 -0.35496 0 0.403273 -0.362249 0 0.450093 -0.383465 0 
0.48622 -0.38089 0 0.464482 -0.368113 0 0.489906 -0.356713 0 
0.5125 -0.3625 0 0.5375 -0.3875 0 0.5125 -0.3875 0 
0.5375 -0.3625 0 -0.5375 -0.3375 0 -0.5125 -0.3375 0 
-0.5125 -0.3125 0 -0.5375 -0.3125 0 -0.489643 -0.323496 0 
-0.465944 -0.30365 0 -0.469203 -0.331604 0 -0.400854 -0.319727 0 
-0.447006 -0.331568 0 -0.422315 -0.30978 0 -0.444252 -0.30402 0 
-0.40034 -0.343432 0 -0.425674 -0.337392 0 -0.375108 -0.322129 0 
-0.372565 -0.345132 0 -0.350183 -0.326175 0 -0.302275 -0.327549 0 
-0.325056 -0.32496 0 -0.339276 -0.348891 0 -0.347345 -0.300922 0 
-0.271477 -0.345352 0 -0.258978 -0.3194 0 -0.281072 -0.319758 0 
-0.239263 -0.305758 0 -0.241363 -0.336936 0 -0.210662 -0.301473 0 
-0.220973 -0.324867 0 -0.169339 -0.333834 0 -0.186915 -0.30657 0 
-0.162026 -0.311624 0 -0.195796 -0.32909 0 -0.138127 -0.319939 0 
-0.119906 -0.334084 0 -0.147323 -0.344765 0 -0.111479 -0.303497 0 
-0.0772361 -0.310504 0 -0.0855432 -0.343295 0 -0.0630922 -0.330551 0 
-0.05049 -0.305893 0 -0.098532 -0.321975 0 -0.00962258 -0.327299 0 
-0.0288682 -0.313886 0 -0.0407083 -0.336395 0 0.0125835 -0.330323 0 