# vtk DataFile Version 4.0
vtk output
ASCII
DATASET POLYDATA
FIELD FieldData 4
domain 1 3 string
domain_min:-csize|-csize
domain_max:csize|csize
cell_size:csize

variables 1 1 string
T:0

constants 1 4 string
csize:2
mass:1
coef:0.5
dt:0.0001

functions 1 4 string
eq0:T=(T+dt)
acc:a=nbody(mass,coef)/mass
int_acc:v=v+int1(a,dt)
int_vel:r=r+int1(v,dt)

POINTS 3 float
0.9700436 -0.24308753 0 -0.9700436 0.24308753 0 0 0 0

VERTICES 6 6
1 0 
1 1 
1 2 

POINT_DATA 3
SCALARS id float
LOOKUP_TABLE default
0 1 2
FIELD FieldData 4
grid_id 1 3 float
0 0 0
a 3 3 float
0 0 0 0 0 0 0 0 0

v 3 3 float
0.466203685 0.43236573 0 0.466203685 0.43236573 0 -0.932407370 -0.86473146 0

r 3 3 float
0.9700436 -0.24308753 0 -0.9700436 0.24308753 0 0 0 0