# vtk DataFile Version 4.0
vtk output
ASCII
DATASET POLYDATA
FIELD FieldData 4
domain 1 3 string
domain_min:-11|-11
domain_max:11|11
cell_size:0.05

variables 1 2 string
dt:0.0005
T:20.0003

constants 1 10 string
xsize:1
ysize:1
csize:0.05
dx:0.0238095
h:0.025
rho0:1000
mass:0.566894
g:0|0
c:10
CFL:0.2

functions 1 8 string
time:T=(T+dt)
continuity:rho_dot=((-(rho*sph_D00(v,mass,rho,Wp52220)))+(((0.1*c)*h)*sph_L00(rho,mass,rho,Wp52220)))
irho:rho=(rho+int1(rho_dot,dt))
EOS:p=(((c^2)*(rho-rho0))+1000)
euler:a=if(gid,(0*v),(((-((1/rho)*sph_G11(p,mass,rho,Wp52220)))+(0.004*sph_L00(v,mass,rho,Wp52220)))+g))
vel:v=(v+int1(a,dt))
pos:r=if(gid,r,(r+int1(v,dt)))
new_dt:dt=(CFL*min(sqrt((h/fmax(magnitude(a)))),(h/c)))

POINTS 2029 float
-0.538043 -0.5125 0 -0.51413 -0.5375 0 -0.51413 -0.5125 0 
-0.538043 -0.5375 0 -0.490217 -0.5375 0 -0.490217 -0.5125 0 
-0.466304 -0.5375 0 -0.466304 -0.5125 0 -0.442391 -0.5375 0 
-0.442391 -0.5125 0 -0.418478 -0.5375 0 -0.418478 -0.5125 0 
-0.394565 -0.5375 0 -0.370652 -0.5375 0 -0.394565 -0.5125 0 
-0.370652 -0.5125 0 -0.322826 -0.5375 0 -0.346739 -0.5125 0 
-0.322826 -0.5125 0 -0.346739 -0.5375 0 -0.275 -0.5125 0 
-0.298913 -0.5125 0 -0.275 -0.5375 0 -0.251087 -0.5125 0 
-0.251087 -0.5375 0 -0.298913 -0.5375 0 -0.203261 -0.5375 0 
-0.227174 -0.5375 0 -0.227174 -0.5125 0 -0.203261 -0.5125 0 
-0.155435 -0.5125 0 -0.179348 -0.5375 0 -0.179348 -0.5125 0 
-0.155435 -0.5375 0 -0.131522 -0.5375 0 -0.107609 -0.5375 0 
-0.107609 -0.5125 0 -0.131522 -0.5125 0 -0.0836956 -0.5125 0 
-0.0836956 -0.5375 0 -0.0597826 -0.5125 0 -0.0597826 -0.5375 0 
-0.0358695 -0.5125 0 -0.0119565 -0.5375 0 -0.0119565 -0.5125 0 
-0.0358695 -0.5375 0 0.0358696 -0.5125 0 0.0119565 -0.5125 0 
0.0119565 -0.5375 0 0.0358696 -0.5375 0 0.0597826 -0.5375 0 
0.0836957 -0.5125 0 0.0836957 -0.5375 0 0.0597826 -0.5125 0 
0.107609 -0.5375 0 0.131522 -0.5375 0 0.107609 -0.5125 0 
0.131522 -0.5125 0 0.155435 -0.5375 0 0.155435 -0.5125 0 
0.179348 -0.5375 0 0.179348 -0.5125 0 0.203261 -0.5125 0 
0.227174 -0.5375 0 0.227174 -0.5125 0 0.203261 -0.5375 0 
0.298913 -0.5125 0 0.251087 -0.5375 0 0.275 -0.5375 0 
0.275 -0.5125 0 0.298913 -0.5375 0 0.251087 -0.5125 0 
0.346739 -0.5375 0 0.322826 -0.5125 0 0.322826 -0.5375 0 
0.346739 -0.5125 0 0.394565 -0.5125 0 0.370652 -0.5125 0 
0.370652 -0.5375 0 0.394565 -0.5375 0 0.418478 -0.5375 0 
0.442391 -0.5375 0 0.442391 -0.5125 0 0.418478 -0.5125 0 
0.490217 -0.5125 0 0.466304 -0.5375 0 0.490217 -0.5375 0 
0.466304 -0.5125 0 0.51413 -0.5375 0 0.538043 -0.5375 0 
0.51413 -0.5125 0 0.538043 -0.5125 0 -0.5125 -0.463415 0 
-0.5375 -0.463415 0 -0.5125 -0.487805 0 -0.5375 -0.487805 0 
-0.464266 -0.461259 0 -0.464275 -0.487168 0 -0.4882 -0.486327 0 
-0.487811 -0.460794 0 -0.420345 -0.487517 0 -0.402364 -0.461646 0 
-0.425932 -0.460851 0 -0.442582 -0.482899 0 -0.372799 -0.486315 0 
-0.378322 -0.460326 0 -0.396242 -0.486459 0 -0.355459 -0.458795 0 
-0.350269 -0.485415 0 -0.306906 -0.48221 0 -0.312416 -0.451257 0 
-0.332316 -0.46047 0 -0.327329 -0.486829 0 -0.250265 -0.489298 0 
-0.259685 -0.45368 0 -0.268013 -0.475376 0 -0.292047 -0.460753 0 
-0.284966 -0.489841 0 -0.232796 -0.47808 0 -0.21247 -0.489738 0 
-0.218113 -0.458345 0 -0.158064 -0.458486 0 -0.154172 -0.485248 0 
-0.175929 -0.488095 0 -0.194812 -0.477365 0 -0.17825 -0.457742 0 
-0.131132 -0.487996 0 -0.113033 -0.457831 0 -0.10865 -0.485757 0 
-0.134283 -0.462639 0 -0.0664251 -0.487343 0 -0.0884143 -0.484221 0 
-0.0719426 -0.460409 0 -0.0927897 -0.454177 0 -0.0488524 -0.462784 0 
-0.0216808 -0.483658 0 -0.0175747 -0.459995 0 -0.0427734 -0.487059 0 
0.023451 -0.486634 0 0.00663013 -0.461525 0 0.0458774 -0.486116 0 
0.0301421 -0.460658 0 0.000717936 -0.487686 0 0.0665452 -0.484434 0 
0.0739683 -0.45852 0 0.0517325 -0.456203 0 0.0968579 -0.461053 0 
0.088335 -0.487085 0 0.110779 -0.485679 0 0.12181 -0.460514 0 
0.146862 -0.465869 0 0.133075 -0.487736 0 0.15845 -0.487506 0 
0.18297 -0.487939 0 0.178452 -0.465828 0 0.234343 -0.455352 0 
0.245855 -0.489343 0 0.228271 -0.478023 0 0.203576 -0.464606 0 
0.208732 -0.489843 0 0.292969 -0.488884 0 0.282017 -0.461125 0 
0.258739 -0.461509 0 0.268759 -0.485808 0 0.304813 -0.4688 0 
0.32292 -0.454386 0 0.338069 -0.474045 0 0.321384 -0.490263 0 
0.357065 -0.455715 0 0.354297 -0.489417 0 0.374468 -0.467627 0 
0.381998 -0.488858 0 0.423981 -0.460784 0 0.408596 -0.488105 0 
0.447426 -0.456396 0 0.401404 -0.464365 0 0.432596 -0.484827 0 
0.489568 -0.463111 0 0.485244 -0.488575 0 0.465866 -0.468536 0 
0.455401 -0.489057 0 0.5375 -0.463415 0 0.5375 -0.487805 0 
0.5125 -0.487805 0 0.5125 -0.463415 0 -0.5125 -0.439024 0 
-0.5375 -0.414634 0 -0.5125 -0.414634 0 -0.5375 -0.439024 0 
-0.487416 -0.435674 0 -0.489187 -0.410201 0 -0.45198 -0.413023 0 
-0.465417 -0.432387 0 -0.432546 -0.426801 0 -0.445247 -0.449572 0 
-0.412063 -0.436151 0 -0.42112 -0.403749 0 -0.37352 -0.409409 0 
-0.388292 -0.43576 0 -0.398801 -0.411618 0 -0.364591 -0.433058 0 
-0.347282 -0.408937 0 -0.340839 -0.434055 0 -0.319516 -0.425859 0 
-0.297845 -0.424399 0 -0.280044 -0.44057 0 -0.266211 -0.420691 0 
-0.282828 -0.403398 0 -0.200314 -0.447292 0 -0.22305 -0.426696 0 
-0.239748 -0.449657 0 -0.205259 -0.417676 0 -0.244836 -0.423101 0 
-0.163949 -0.42549 0 -0.183951 -0.429002 0 -0.102982 -0.424699 0 
-0.136249 -0.409597 0 -0.122796 -0.432548 0 -0.112723 -0.400479 0 
-0.145128 -0.436577 0 -0.0653048 -0.40568 0 -0.0600515 -0.435774 0 
-0.0875741 -0.40145 0 -0.0813753 -0.429603 0 -0.0183247 -0.4261 0 
-0.0342366 -0.444914 0 -0.0438727 -0.418284 0 -0.0289207 -0.400315 0 
0.00123379 -0.438358 0 0.0494552 -0.428921 0 0.0272893 -0.435594 0 
0.0102504 -0.415184 0 0.0327727 -0.407447 0 0.0606604 -0.406813 0 
0.0731206 -0.433838 0 0.0856615 -0.415026 0 0.135201 -0.412192 0 
0.112594 -0.420324 0 0.100989 -0.438697 0 0.131949 -0.440454 0 
0.184395 -0.441302 0 0.153987 -0.42535 0 0.176748 -0.416378 0 
0.160605 -0.447934 0 0.231269 -0.42785 0 0.200251 -0.420854 0 
0.211857 -0.443362 0 0.225302 -0.40673 0 0.298688 -0.415323 0 
0.253722 -0.437461 0 0.285454 -0.440054 0 0.270562 -0.421126 0 
0.25347 -0.406677 0 0.343148 -0.43837 0 0.309448 -0.436296 0 
0.320253 -0.400873 0 0.331355 -0.418876 0 0.371716 -0.432711 0 
0.356608 -0.414063 0 0.3906 -0.443989 0 0.385202 -0.410969 0 
0.407233 -0.428697 0 0.416783 -0.407944 0 0.428809 -0.437228 0 
0.441855 -0.417666 0 0.482022 -0.441808 0 0.459263 -0.434773 0 
0.468084 -0.409765 0 0.489598 -0.420416 0 0.5375 -0.439024 0 
0.5125 -0.414634 0 0.5375 -0.414634 0 0.5125 -0.439024 0 
-0.5375 -0.365854 0 -0.5125 -0.390244 0 -0.5375 -0.390244 0 
-0.5125 -0.365854 0 -0.470745 -0.398217 0 -0.48933 -0.379741 0 
-0.453347 -0.354724 0 -0.488289 -0.354343 0 -0.465281 -0.373268 0 
-0.442768 -0.389668 0 -0.410003 -0.382276 0 -0.432214 -0.369709 0 
-0.418656 -0.35029 0 -0.359228 -0.387089 0 -0.351265 -0.357984 0 
-0.372959 -0.365172 0 -0.386466 -0.38781 0 -0.396831 -0.360616 0 
-0.325376 -0.399587 0 -0.302172 -0.371232 0 -0.321642 -0.359924 0 
-0.304362 -0.395042 0 -0.335954 -0.378215 0 -0.261991 -0.389764 0 
-0.279528 -0.374155 0 -0.256859 -0.361563 0 -0.222083 -0.390657 0 
-0.241526 -0.39886 0 -0.219021 -0.356756 0 -0.237375 -0.369734 0 
-0.200273 -0.393393 0 -0.157184 -0.399359 0 -0.179224 -0.399159 0 
-0.177777 -0.369105 0 -0.156841 -0.374192 0 -0.199686 -0.367795 0 
-0.101219 -0.377317 0 -0.118531 -0.362225 0 -0.131661 -0.38478 0 
-0.140963 -0.357629 0 -0.077394 -0.376995 0 -0.0624787 -0.360248 0 
-0.0906372 -0.351654 0 -0.0520921 -0.386638 0 -0.0404984 -0.351562 0 
-0.0326597 -0.373839 0 -0.00648676 -0.398937 0 -0.00318198 -0.352189 0 
-0.00993771 -0.372621 0 0.0144264 -0.385661 0 0.0423071 -0.386399 0 
0.0219768 -0.365117 0 0.0479639 -0.36299 0 0.0899405 -0.392351 0 
0.068066 -0.38339 0 0.0940092 -0.367043 0 0.0726175 -0.357622 0 
0.11833 -0.371841 0 0.113638 -0.395029 0 0.140242 -0.387729 0 
0.131871 -0.352664 0 0.173799 -0.364617 0 0.151764 -0.367483 0 
0.181735 -0.387361 0 0.161628 -0.397364 0 0.194536 -0.354076 0 
0.206627 -0.373883 0 0.238311 -0.387238 0 0.203788 -0.396903 0 
0.22822 -0.366323 0 0.2655 -0.383063 0 0.283672 -0.397562 0 
0.251721 -0.361799 0 0.284744 -0.367033 0 0.337762 -0.38593 0 
0.304025 -0.382992 0 0.320245 -0.365545 0 0.37786 -0.377662 0 
0.393511 -0.358764 0 0.361072 -0.393538 0 0.350837 -0.36686 0 
0.396303 -0.392292 0 0.368064 -0.351939 0 0.443281 -0.364392 0 
0.412604 -0.371368 0 0.427981 -0.38778 0 0.488502 -0.368982 0 
0.46225 -0.350483 0 0.488354 -0.394212 0 0.466711 -0.377562 0 
0.450382 -0.393241 0 0.5375 -0.390244 0 0.5125 -0.390244 0 
0.5125 -0.365854 0 0.5375 -0.365854 0 -0.5375 -0.341463 0 
-0.5125 -0.341463 0 -0.5375 -0.317073 0 -0.5125 -0.317073 0 
-0.470653 -0.338543 0 -0.474502 -0.307259 0 -0.490745 -0.324795 0 
-0.452786 -0.317403 0 -0.406362 -0.329109 0 -0.425069 -0.313538 0 
-0.438288 -0.33557 0 -0.402402 -0.300642 0 -0.38388 -0.339094 0 
-0.383081 -0.31325 0 -0.352007 -0.31255 0 -0.361903 -0.333741 0 
-0.336139 -0.33797 0 -0.318227 -0.327063 0 -0.333674 -0.302982 0 
-0.299874 -0.343864 0 -0.253836 -0.33568 0 -0.278574 -0.347438 0 
-0.25643 -0.300012 0 -0.272021 -0.32122 0 -0.294648 -0.31716 0 
-0.214179 -0.322332 0 -0.232662 -0.336334 0 -0.237852 -0.309041 0 
-0.201935 -0.302206 0 -0.154672 -0.3378 0 -0.183394 -0.319015 0 
-0.166285 -0.307094 0 -0.19793 -0.340348 0 -0.174351 -0.344005 0 
-0.130167 -0.330974 0 -0.145629 -0.312198 0 -0.112181 -0.310952 0 
-0.10876 -0.337941 0 -0.0717711 -0.336764 0 -0.0682027 -0.307368 0 
-0.0887949 -0.31923 0 -0.0408821 -0.306125 0 -0.0193532 -0.314424 0 
-0.0500248 -0.327645 0 -0.0227209 -0.338266 0 0.0345328 -0.32215 0 
0.0149582 -0.306761 0 0.0232389 -0.342899 0 0.0484419 -0.302932 0 
0.00297367 -0.326895 0 0.0855889 -0.337026 0 0.0905428 -0.311229 0 
0.0670754 -0.320957 0 0.0525505 -0.33976 0 0.13729 -0.327793 0 
0.108127 -0.344765 0 0.145588 -0.306988 0 0.113621 -0.321798 0 
0.17807 -0.332826 0 0.196197 -0.307772 0 0.168143 -0.31124 0 
0.157699 -0.34111 0 0.247554 -0.30056 0 0.244099 -0.334619 0 
[...]
POINT_DATA 2029
SCALARS id float
LOOKUP_TABLE default
1764 1765 1766 1763 1767 1768 1769 1770 1771 
1772 1773 1774 1775 1777 1776 1778 1781 1780 
1782 1779 1786 1784 1785 1788 1787 1783 1791 
1789 1790 1792 1796 1793 1794 1795 1797 1799 
1800 1798 1802 1801 1804 1803 1806 1807 1808 
1805 1812 1810 1809 1811 1813 1816 1815 1814 
1817 1819 1818 1820 1821 1822 1823 1824 1826 
1827 1828 1825 1834 1829 1831 1832 1833 1830 
1837 1836 1835 1838 1842 1840 1839 1841 1843 
1845 1846 1844 1850 1847 1849 1848 1851 1853 
1852 1854 1723 1682 1722 1681 41 82 0 
1 1394 269 1435 164 930 560 1607 254 
883 148 495 540 834 338 585 224 1488 
11 143 171 825 1651 581 333 214 470 
618 755 1602 519 398 1618 721 1166 946 
922 1116 1660 865 109 1314 57 309 1563 
986 5 293 1067 822 469 1564 86 1215 
88 718 1148 1354 332 166 782 1623 26 
1567 305 699 1232 486 1574 71 211 659 
344 510 1641 551 399 190 1642 1640 1355 
783 1897 1896 1855 1856 1724 1684 1725 1683 
42 206 1645 83 1604 123 1653 911 182 
131 681 864 210 89 391 418 172 1599 
292 781 270 414 520 537 753 30 698 
1000 441 1615 1273 263 567 179 54 821 
208 875 1008 589 401 298 509 262 435 
364 1149 325 668 175 22 329 616 237 
508 184 606 917 1479 708 379 642 423 
588 1353 596 545 831 425 1611 1610 720 
84 1617 752 139 1028 370 1280 186 1898 
1858 1899 1857 1686 1726 1685 1727 574 2 
1601 176 1649 385 48 1133 417 1111 1112 
823 675 261 251 1358 1357 133 7 1069 
1191 371 1399 547 1658 984 1659 985 268 
249 153 1650 142 430 1365 341 1239 666 
1360 1477 1107 1578 1614 267 870 555 433 
1522 716 761 677 265 786 303 295 1195 
1449 1613 161 207 603 1035 525 1196 1655 
400 331 931 337 927 382 299 1533 51 
1491 217 427 136 1647 595 1523 563 1518 
862 959 314 44 1900 1859 1860 1901 1687 
1728 1688 1729 631 511 317 670 1276 458 
968 250 12 226 126 1524 61 38 187 
352 1198 1356 634 1664 534 85 106 1075 
1654 274 141 746 255 1484 216 679 174 
76 257 1529 415 258 9 745 1534 235 
466 79 105 706 950 1072 434 839 1486 
294 1004 1046 383 1544 1147 335 582 1070 
498 803 807 744 1154 1210 1333 497 805 
1478 440 872 102 621 50 726 1620 847 
288 137 1032 259 1444 60 1187 467 1903 
1902 1862 1861 1690 1731 1730 1689 428 1652 
1648 355 580 252 502 878 1272 719 1085 
977 628 1521 4 1115 63 426 340 94 
306 669 215 592 665 183 1579 912 196 
421 663 394 1668 729 1401 972 1321 1054 
828 1277 1405 1114 727 1170 169 1174 1320 
1029 194 1294 27 866 1585 191 1293 1319 
1670 1586 369 327 1045 1619 482 725 1278 
951 924 378 514 1673 1234 507 1517 49 
473 55 91 667 431 1569 1904 1863 1864 
1905 1691 1733 1732 1692 96 124 350 233 
180 784 785 579 1439 1068 1231 944 999 
464 1661 993 749 913 387 178 125 95 
1361 1408 73 1363 33 644 173 156 221 
538 1377 1106 1404 439 334 437 809 854 
1379 767 1362 1622 1155 354 694 277 1030 
974 107 743 116 932 1226 1211 1087 1208 
393 845 1091 1487 703 285 787 64 556 
1526 764 1156 195 1253 1605 59 388 844 
1662 228 623 1436 747 52 611 758 311 
1866 1906 1907 1865 1694 1734 1693 1735 1644 
110 460 43 1565 111 127 474 1079 411 
1395 658 1450 1074 380 521 419 345 452 
342 14 29 1237 318 1445 357 442 971 
1013 983 1350 541 1238 1490 684 1279 682 
1131 1359 645 108 646 867 763 456 890 
1010 192 1012 1132 973 966 1213 1639 25 
1130 885 1331 1501 1374 920 1086 1306 432 
35 1543 8 995 253 242 1212 1485 475 
1447 1169 359 640 622 901 765 1656 1609 
934 24 1127 709 1908 1867 1868 1909 1696 
1736 1695 1737 165 389 493 138 413 1437 
692 412 1007 1666 266 1616 53 799 705 
750 539 542 1281 790 504 1581 857 93 
561 1418 1337 1255 1629 477 775 1545 751 
227 1053 970 1575 1173 564 112 1297 776 
1071 1502 1089 1052 1011 450 1252 1194 737 
1416 888 641 81 654 1372 1251 244 693 
1584 326 1500 1090 512 1334 159 66 1531 
189 1672 860 1292 1151 625 330 478 571 
933 949 704 377 1476 499 1911 1869 1870 
1910 1739 1698 1697 1738 826 247 205 218 
1316 6 838 1192 638 601 1313 1109 1108 
239 553 28 594 1282 444 1489 363 234 
229 768 461 154 146 600 1296 1093 1104 
368 436 1185 850 1461 484 1389 68 686 
1511 889 1308 1047 1429 1183 1265 817 1677 
1335 1542 532 446 1214 1346 572 1427 406 
612 1551 1583 1223 1103 1003 1289 1303 1186 
118 964 1332 1540 213 925 1165 1110 1128 
1125 619 129 1129 544 914 1530 1271 1912 
1871 1913 1872 1700 1740 1741 1742 1699 1701 
308 1440 465 1560 1657 503 740 1171 1525 
905 672 472 1576 921 1366 788 58 1138 
1626 152 829 361 32 1134 1421 72 155 
1063 1009 1419 724 202 696 272 1587 396 
1051 1459 1460 120 531 942 1224 1347 734 
1144 1636 1387 197 610 899 201 1635 1305 
1469 1594 1140 1142 445 1269 1509 1593 653 
735 1207 367 858 1671 1330 884 1264 1049 
312 1483 307 62 1172 1073 1291 804 779 
185 320 550 1295 1914 1915 1873 1916 1874 
1875 1744 1743 1703 1702 1088 304 416 248 
494 392 481 1027 1528 549 346 586 1150 
830 245 1323 1322 1407 319 568 17 1406 
647 952 1033 271 1378 604 689 1254 941 
310 530 449 1022 1375 1627 1062 80 40 
570 939 1470 1552 203 1225 1428 1598 1432 
1634 1680 1434 1550 1678 1433 1556 1101 1261 
650 1179 1102 1222 1263 1141 1021 200 1386 
1412 841 1370 145 1162 37 390 701 987 
1414 929 1050 1527 1621 231 869 1558 1876 
1918 1917 1877 1745 1746 1705 1704 132 1398 
246 420 904 395 762 598 45 1084 759 
410 772 633 1240 812 322 789 896 648 
992 976 69 893 278 1094 188 685 321 
149 1298 643 1336 119 1349 1376 77 1348 
408 490 284 162 286 818 1553 366 1596 
1595 1311 1188 1514 1513 1270 1352 1181 1515 
1468 1310 1020 815 1344 1475 979 1497 1262 
407 1510 36 1246 1083 1457 1674 1250 1005 
1204 802 1288 1048 1413 1024 664 1317 1025 
1541 1920 1919 1878 1879 1747 1706 1748 1707 
3 739 1603 792 104 597 167 1519 1002 
629 476 372 527 587 626 1562 573 485 
480 198 1503 1014 851 892 232 275 313 
562 1256 1588 849 1557 122 613 1307 695 
777 1388 859 1184 1430 736 204 1512 1516 
1638 1391 1393 1023 1474 1555 1597 1341 1473 
1064 1146 1592 1351 1431 1229 1268 1228 1385 
1065 1182 1328 1456 1498 158 1369 103 961 
1415 1143 515 900 324 881 991 583 31 
697 1921 1881 1880 1922 1709 1708 1749 1750 
1566 910 738 492 46 793 496 10 16 
23 517 1561 1448 1037 360 236 552 1057 
1364 526 687 607 953 99 771 1381 891 
1257 810 1631 1145 1504 230 808 1380 1390 
409 1105 1422 1630 1471 163 1217 1472 1266 
1637 1554 1505 1267 778 491 1548 1676 1465 
1423 1258 1300 1259 1590 655 1424 1382 1679 
1309 1221 1633 1467 938 1345 1060 898 1061 
241 488 1496 1042 1121 981 1245 774 1559 
462 1318 1236 1883 1882 1923 1924 1752 1711 
1710 1751 98 297 260 656 1600 754 576 
376 994 1402 302 960 558 711 617 181 
673 351 731 463 651 1494 975 1117 707 
954 937 323 193 811 1175 1420 1299 1216 
1096 1338 1340 1546 1015 1136 1339 315 1547 
1056 1464 1095 852 935 1055 1632 1462 1506 
1218 479 1463 853 565 894 1589 524 273 
1177 1220 1384 1507 1301 1549 1302 813 1019 
691 1100 978 1018 1426 405 362 365 1193 
283 1080 1573 34 902 296 1481 1327 1925 
1885 1884 1926 1753 1713 1712 1754 339 943 
501 575 1031 356 65 1396 967 1006 714 
798 887 513 453 674 756 584 1026 590 
429 996 529 1058 871 1137 358 1097 1176 
151 728 1135 770 730 397 523 483 856 
1017 1219 690 769 279 1383 1139 649 566 
1178 1466 855 1016 1099 1425 1669 489 448 
1508 832 121 528 688 733 1343 1591 117 
443 614 652 487 75 814 281 1059 157 
962 13 639 177 1446 1190 316 909 1928 
1886 1927 1887 1714 1755 1715 1756 620 147 
457 533 289 1532 846 886 1646 115 74 
671 988 602 842 710 343 225 1536 873 
795 1568 627 1034 609 936 160 381 18 
1324 522 548 605 403 569 220 1260 1409 
280 608 895 732 1098 1180 1452 982 897 
1537 1201 1241 1342 199 78 243 1325 404 
997 1284 39 1077 874 1160 240 1625 1675 
1202 1285 1580 797 800 980 1286 1287 1227 
1304 134 1329 816 1164 965 535 1233 536 
1608 1400 1612 1888 1930 1929 1889 1717 1758 
1716 1757 276 238 1606 1113 168 113 373 
90 1482 1480 557 447 348 757 945 554 
833 1118 837 630 546 1158 863 998 1520 
1119 384 1492 1283 1078 632 1076 1036 1495 
1538 1200 505 712 955 1493 1199 819 791 
1159 1081 1451 957 1628 1242 1624 468 916 
1326 796 1040 794 1082 1243 1209 713 956 
915 1453 1247 1367 1205 1410 1455 1392 1438 
636 680 940 1248 223 1161 1041 1167 1168 
989 1189 1066 879 1235 1931 1891 1890 1932 
1719 1718 1759 1760 1312 1577 1373 880 454 
1442 1643 923 660 375 300 170 402 843 
130 209 47 282 1044 100 801 715 918 
471 353 676 70 700 1571 683 264 336 
1315 835 506 140 1038 678 1371 1539 349 
424 1454 518 1582 877 591 1206 21 1249 
1443 722 1368 1153 963 836 593 908 1120 
958 1244 1663 1039 1203 1124 848 1126 114 
928 723 876 1043 919 1570 773 1499 1665 
1290 906 1397 559 907 291 1157 1572 1892 
1933 1893 1934 1720 1762 1761 1721 347 1230 
328 861 92 926 455 67 386 212 97 
219 1535 1092 19 827 1163 624 824 150 
599 615 374 702 1275 840 1403 101 948 
990 56 516 451 577 1197 1667 637 301 
820 20 969 1123 135 717 87 1122 635 
661 438 1458 1274 500 662 128 422 741 
1441 868 287 15 222 947 1411 657 1152 
256 578 780 748 459 1001 806 903 290 
760 543 742 766 144 882 1417 1894 1936 
1895 1935 1939 1937 1940 1938 1943 1941 1944 
1942 1947 1945 1946 1948 1951 1950 1952 1949 
1956 1954 1953 1955 1958 1959 1960 1962 1957 
1961 1963 1965 1966 1964 1970 1968 1967 1969 
1974 1973 1971 1972 1976 1975 1977 1978 1982 
1981 1980 1979 1983 1984 1985 1986 1990 1988 
1987 1989 1991 1994 1993 1992 1997 1998 1996 
1995 2002 2000 1999 2001 2004 2008 2005 2003 
2007 2006 2010 2012 2009 2011 2015 2014 2013 
2016 2018 2017 2020 2019 2021 2022 2023 2024 
2025 2026 2027 2028 
FIELD FieldData 7
r 3 2029 float
-0.538043 -0.5125 0 -0.51413 -0.5375 0 -0.51413 -0.5125 0 
-0.538043 -0.5375 0 -0.490217 -0.5375 0 -0.490217 -0.5125 0 
-0.466304 -0.5375 0 -0.466304 -0.5125 0 -0.442391 -0.5375 0 
-0.442391 -0.5125 0 -0.418478 -0.5375 0 -0.418478 -0.5125 0 
-0.394565 -0.5375 0 -0.370652 -0.5375 0 -0.394565 -0.5125 0 
-0.370652 -0.5125 0 -0.322826 -0.5375 0 -0.346739 -0.5125 0 
-0.322826 -0.5125 0 -0.346739 -0.5375 0 -0.275 -0.5125 0 
-0.298913 -0.5125 0 -0.275 -0.5375 0 -0.251087 -0.5125 0 
-0.251087 -0.5375 0 -0.298913 -0.5375 0 -0.203261 -0.5375 0 
-0.227174 -0.5375 0 -0.227174 -0.5125 0 -0.203261 -0.5125 0 
-0.155435 -0.5125 0 -0.179348 -0.5375 0 -0.179348 -0.5125 0 
-0.155435 -0.5375 0 -0.131522 -0.5375 0 -0.107609 -0.5375 0 
-0.107609 -0.5125 0 -0.131522 -0.5125 0 -0.0836956 -0.5125 0 
-0.0836956 -0.5375 0 -0.0597826 -0.5125 0 -0.0597826 -0.5375 0 
-0.0358695 -0.5125 0 -0.0119565 -0.5375 0 -0.0119565 -0.5125 0 
-0.0358695 -0.5375 0 0.0358696 -0.5125 0 0.0119565 -0.5125 0 
0.0119565 -0.5375 0 0.0358696 -0.5375 0 0.0597826 -0.5375 0 
0.0836957 -0.5125 0 0.0836957 -0.5375 0 0.0597826 -0.5125 0 
0.107609 -0.5375 0 0.131522 -0.5375 0 0.107609 -0.5125 0 
0.131522 -0.5125 0 0.155435 -0.5375 0 0.155435 -0.5125 0 
0.179348 -0.5375 0 0.179348 -0.5125 0 0.203261 -0.5125 0 
0.227174 -0.5375 0 0.227174 -0.5125 0 0.203261 -0.5375 0 
0.298913 -0.5125 0 0.251087 -0.5375 0 0.275 -0.5375 0 
0.275 -0.5125 0 0.298913 -0.5375 0 0.251087 -0.5125 0 
0.346739 -0.5375 0 0.322826 -0.5125 0 0.322826 -0.5375 0 
0.346739 -0.5125 0 0.394565 -0.5125 0 0.370652 -0.5125 0 
0.370652 -0.5375 0 0.394565 -0.5375 0 0.418478 -0.5375 0 
0.442391 -0.5375 0 0.442391 -0.5125 0 0.418478 -0.5125 0 
0.490217 -0.5125 0 0.466304 -0.5375 0 0.490217 -0.5375 0 
0.466304 -0.5125 0 0.51413 -0.5375 0 0.538043 -0.5375 0 
0.51413 -0.5125 0 0.538043 -0.5125 0 -0.5125 -0.463415 0 
-0.5375 -0.463415 0 -0.5125 -0.487805 0 -0.5375 -0.487805 0 
-0.464266 -0.461259 0 -0.464275 -0.487168 0 -0.4882 -0.486327 0 
-0.487811 -0.460794 0 -0.420345 -0.487517 0 -0.402364 -0.461646 0 
-0.425932 -0.460851 0 -0.442582 -0.482899 0 -0.372799 -0.486315 0 
-0.378322 -0.460326 0 -0.396242 -0.486459 0 -0.355459 -0.458795 0 
-0.350269 -0.485415 0 -0.306906 -0.48221 0 -0.312416 -0.451257 0 
-0.332316 -0.46047 0 -0.327329 -0.486829 0 -0.250265 -0.489298 0 
-0.259685 -0.45368 0 -0.268013 -0.475376 0 -0.292047 -0.460753 0 
-0.284966 -0.489841 0 -0.232796 -0.47808 0 -0.21247 -0.489738 0 
-0.218113 -0.458345 0 -0.158064 -0.458486 0 -0.154172 -0.485248 0 
-0.175929 -0.488095 0 -0.194812 -0.477365 0 -0.17825 -0.457742 0 
-0.131132 -0.487996 0 -0.113033 -0.457831 0 -0.10865 -0.485757 0 
-0.134283 -0.462639 0 -0.0664251 -0.487343 0 -0.0884143 -0.484221 0 
-0.0719426 -0.460409 0 -0.0927897 -0.454177 0 -0.0488524 -0.462784 0 
-0.0216808 -0.483658 0 -0.0175747 -0.459995 0 -0.0427734 -0.487059 0 
0.023451 -0.486634 0 0.00663013 -0.461525 0 0.0458774 -0.486116 0 
0.0301421 -0.460658 0 0.000717936 -0.487686 0 0.0665452 -0.484434 0 
0.0739683 -0.45852 0 0.0517325 -0.456203 0 0.0968579 -0.461053 0 
0.088335 -0.487085 0 0.110779 -0.485679 0 0.12181 -0.460514 0 
0.146862 -0.465869 0 0.133075 -0.487736 0 0.15845 -0.487506 0 
0.18297 -0.487939 0 0.178452 -0.465828 0 0.234343 -0.455352 0 
0.245855 -0.489343 0 0.228271 -0.478023 0 0.203576 -0.464606 0 
0.208732 -0.489843 0 0.292969 -0.488884 0 0.282017 -0.461125 0 
0.258739 -0.461509 0 0.268759 -0.485808 0 0.304813 -0.4688 0 
0.32292 -0.454386 0 0.338069 -0.474045 0 0.321384 -0.490263 0 
0.357065 -0.455715 0 0.354297 -0.489417 0 0.374468 -0.467627 0 
0.381998 -0.488858 0 0.423981 -0.460784 0 0.408596 -0.488105 0 
0.447426 -0.456396 0 0.401404 -0.464365 0 0.432596 -0.484827 0 
0.489568 -0.463111 0 0.485244 -0.488575 0 0.465866 -0.468536 0 
0.455401 -0.489057 0 0.5375 -0.463415 0 0.5375 -0.487805 0 
0.5125 -0.487805 0 0.5125 -0.463415 0 -0.5125 -0.439024 0 
-0.5375 -0.414634 0 -0.5125 -0.414634 0 -0.5375 -0.439024 0 
-0.487416 -0.435674 0 -0.489187 -0.410201 0 -0.45198 -0.413023 0 
-0.465417 -0.432387 0 -0.432546 -0.426801 0 -0.445247 -0.449572 0 
-0.412063 -0.436151 0 -0.42112 -0.403749 0 -0.37352 -0.409409 0 
-0.388292 -0.43576 0 -0.398801 -0.411618 0 -0.364591 -0.433058 0 
-0.347282 -0.408937 0 -0.340839 -0.434055 0 -0.319516 -0.425859 0 
-0.297845 -0.424399 0 -0.280044 -0.44057 0 -0.266211 -0.420691 0 
-0.282828 -0.403398 0 -0.200314 -0.447292 0 -0.22305 -0.426696 0 
-0.239748 -0.449657 0 -0.205259 -0.417676 0 -0.244836 -0.423101 0 
-0.163949 -0.42549 0 -0.183951 -0.429002 0 -0.102982 -0.424699 0 
-0.136249 -0.409597 0 -0.122796 -0.432548 0 -0.112723 -0.400479 0 
-0.145128 -0.436577 0 -0.0653048 -0.40568 0 -0.0600515 -0.435774 0 
-0.0875741 -0.40145 0 -0.0813753 -0.429603 0 -0.0183247 -0.4261 0 
-0.0342366 -0.444914 0 -0.0438727 -0.418284 0 -0.0289207 -0.400315 0 
0.00123379 -0.438358 0 0.0494552 -0.428921 0 0.0272893 -0.435594 0 
0.0102504 -0.415184 0 0.0327727 -0.407447 0 0.0606604 -0.406813 0 
0.0731206 -0.433838 0 0.0856615 -0.415026 0 0.135201 -0.412192 0 
0.112594 -0.420324 0 0.100989 -0.438697 0 0.131949 -0.440454 0 
0.184395 -0.441302 0 0.153987 -0.42535 0 0.176748 -0.416378 0 
0.160605 -0.447934 0 0.231269 -0.42785 0 0.200251 -0.420854 0 
0.211857 -0.443362 0 0.225302 -0.40673 0 0.298688 -0.415323 0 
0.253722 -0.437461 0 0.285454 -0.440054 0 0.270562 -0.421126 0 
0.25347 -0.406677 0 0.343148 -0.43837 0 0.309448 -0.436296 0 
0.320253 -0.400873 0 0.331355 -0.418876 0 0.371716 -0.432711 0 
0.356608 -0.414063 0 0.3906 -0.443989 0 0.385202 -0.410969 0 
0.407233 -0.428697 0 0.416783 -0.407944 0 0.428809 -0.437228 0 
0.441855 -0.417666 0 0.482022 -0.441808 0 0.459263 -0.434773 0 
0.468084 -0.409765 0 0.489598 -0.420416 0 0.5375 -0.439024 0 
0.5125 -0.414634 0 0.5375 -0.414634 0 0.5125 -0.439024 0 
-0.5375 -0.365854 0 -0.5125 -0.390244 0 -0.5375 -0.390244 0 
-0.5125 -0.365854 0 -0.470745 -0.398217 0 -0.48933 -0.379741 0 
-0.453347 -0.354724 0 -0.488289 -0.354343 0 -0.465281 -0.373268 0 
-0.442768 -0.389668 0 -0.410003 -0.382276 0 -0.432214 -0.369709 0 
-0.418656 -0.35029 0 -0.359228 -0.387089 0 -0.351265 -0.357984 0 
-0.372959 -0.365172 0 -0.386466 -0.38781 0 -0.396831 -0.360616 0 
-0.325376 -0.399587 0 -0.302172 -0.371232 0 -0.321642 -0.359924 0 
-0.304362 -0.395042 0 -0.335954 -0.378215 0 -0.261991 -0.389764 0 
-0.279528 -0.374155 0 -0.256859 -0.361563 0 -0.222083 -0.390657 0 
-0.241526 -0.39886 0 -0.219021 -0.356756 0 -0.237375 -0.369734 0 
-0.200273 -0.393393 0 -0.157184 -0.399359 0 -0.179224 -0.399159 0 
-0.177777 -0.369105 0 -0.156841 -0.374192 0 -0.199686 -0.367795 0 
-0.101219 -0.377317 0 -0.118531 -0.362225 0 -0.131661 -0.38478 0 
-0.140963 -0.357629 0 -0.077394 -0.376995 0 -0.0624787 -0.360248 0 
-0.0906372 -0.351654 0 -0.0520921 -0.386638 0 -0.0404984 -0.351562 0 
-0.0326597 -0.373839 0 -0.00648676 -0.398937 0 -0.00318198 -0.352189 0 
-0.00993771 -0.372621 0 0.0144264 -0.385661 0 0.0423071 -0.386399 0 
0.0219768 -0.365117 0 0.0479639 -0.36299 0 0.0899405 -0.392351 0 
0.068066 -0.38339 0 0.0940092 -0.367043 0 0.0726175 -0.357622 0 
0.11833 -0.371841 0 0.113638 -0.395029 0 0.140242 -0.387729 0 
0.131871 -0.352664 0 0.173799 -0.364617 0 0.151764 -0.367483 0 
0.181735 -0.387361 0 0.161628 -0.397364 0 0.194536 -0.354076 0 
0.206627 -0.373883 0 0.238311 -0.387238 0 0.203788 -0.396903 0 
0.22822 -0.366323 0 0.2655 -0.383063 0 0.283672 -0.397562 0 
0.251721 -0.361799 0 0.284744 -0.367033 0 0.337762 -0.38593 0 
0.304025 -0.382992 0 0.320245 -0.365545 0 0.37786 -0.377662 0 
0.393511 -0.358764 0 0.361072 -0.393538 0 0.350837 -0.36686 0 
0.396303 -0.392292 0 0.368064 -0.351939 0 0.443281 -0.364392 0 
0.412604 -0.371368 0 0.427981 -0.38778 0 0.488502 -0.368982 0 
0.46225 -0.350483 0 0.488354 -0.394212 0 0.466711 -0.377562 0 
0.450382 -0.393241 0 0.5375 -0.390244 0 0.5125 -0.390244 0 
0.5125 -0.365854 0 0.5375 -0.365854 0 -0.5375 -0.341463 0 
-0.5125 -0.341463 0 -0.5375 -0.317073 0 -0.5125 -0.317073 0 
-0.470653 -0.338543 0 -0.474502 -0.307259 0 -0.490745 -0.324795 0 
-0.452786 -0.317403 0 -0.406362 -0.329109 0 -0.425069 -0.313538 0 
-0.438288 -0.33557 0 -0.402402 -0.300642 0 -0.38388 -0.339094 0 
-0.383081 -0.31325 0 -0.352007 -0.31255 0 -0.361903 -0.333741 0 
-0.336139 -0.33797 0 -0.318227 -0.327063 0 -0.333674 -0.302982 0 
-0.299874 -0.343864 0 -0.253836 -0.33568 0 -0.278574 -0.347438 0 
-0.25643 -0.300012 0 -0.272021 -0.32122 0 -0.294648 -0.31716 0 
-0.214179 -0.322332 0 -0.232662 -0.336334 0 -0.237852 -0.309041 0 
-0.201935 -0.302206 0 -0.154672 -0.3378 0 -0.183394 -0.319015 0 
-0.166285 -0.307094 0 -0.19793 -0.340348 0 -0.174351 -0.344005 0 
-0.130167 -0.330974 0 -0.145629 -0.312198 0 -0.112181 -0.310952 0 
-0.10876 -0.337941 0 -0.0717711 -0.336764 0 -0.0682027 -0.307368 0 
-0.0887949 -0.31923 0 -0.0408821 -0.306125 0 -0.0193532 -0.314424 0 
-0.0500248 -0.327645 0 -0.0227209 -0.338266 0 0.0345328 -0.32215 0 
0.0149582 -0.306761 0 0.0232389 -0.342899 0 0.0484419 -0.302932 0 
0.00297367 -0.326895 0 0.0855889 -0.337026 0 0.0905428 -0.311229 0 
0.0670754 -0.320957 0 0.0525505 -0.33976 0 0.13729 -0.327793 0 
0.108127 -0.344765 0 0.145588 -0.306988 0 0.113621 -0.321798 0 
0.17807 -0.332826 0 0.196197 -0.307772 0 0.168143 -0.31124 0 
0.157699 -0.34111 0 0.247554 -0.30056 0 0.244099 -0.334619 0 
0.222137 -0.343565 0 0.226711 -0.315715 0 0.203168 -0.329615 0 
0.286225 -0.331841 0 0.299103 -0.312989 0 0.262278 -0.319799 0 
0.268859 -0.347513 0 0.277015 -0.300399 0 0.302181 -0.349562 0 
0.318518 -0.32969 0 0.334594 -0.346869 0 0.330785 -0.3102 0 
0.378282 -0.331838 0 0.35147 -0.330646 0 0.377074 -0.308616 0 
0.353919 -0.30587 0 0.405489 -0.339366 0 0.428406 -0.348744 0 
0.43035 -0.324661 0 0.434544 -0.302341 0 0.402724 -0.316878 0 
0.486168 -0.34551 0 0.461269 -0.309712 0 0.487684 -0.303164 0 
0.45438 -0.330055 0 0.485468 -0.324933 0 0.5375 -0.317073 0 
0.5375 -0.341463 0 0.5125 -0.317073 0 0.5125 -0.341463 0 
-0.5375 -0.268293 0 -0.5125 -0.268293 0 -0.5125 -0.292683 0 
-0.5375 -0.292683 0 -0.489413 -0.290857 0 -0.489411 -0.264313 0 
-0.466755 -0.275222 0 -0.451727 -0.291691 0 -0.428514 -0.291121 0 
-0.416551 -0.267991 0 -0.440287 -0.26512 0 -0.353481 -0.277468 0 
-0.396574 -0.27794 0 -0.369727 -0.295228 0 -0.376799 -0.26949 0 
-0.311579 -0.299062 0 -0.31474 -0.264103 0 -0.332613 -0.276886 0 
-0.278927 -0.294293 0 -0.297399 -0.280695 0 -0.259283 -0.273441 0 
-0.279583 -0.263256 0 -0.208675 -0.269512 0 -0.22337 -0.290794 0 
-0.222798 -0.250033 0 -0.237937 -0.272899 0 -0.169919 -0.255893 0 
-0.191551 -0.253384 0 -0.16703 -0.281554 0 -0.188483 -0.283852 0 
-0.14694 -0.252726 0 -0.145179 -0.280484 0 -0.109401 -0.276726 0 
-0.126419 -0.260565 0 -0.127881 -0.29449 0 -0.0931926 -0.292936 0 