# vtk DataFile Version 4.0
vtk output
ASCII
DATASET POLYDATA
FIELD FieldData 4
domain 1 3 string
domain_min:-11|-11
domain_max:11|11
cell_size:0.05

variables 1 2 string
dt:0.0005
T:20.9998

constants 1 10 string
xsize:1
ysize:1
csize:0.05
dx:0.0238095
h:0.025
rho0:1000
mass:0.566894
g:0|0
c:10
CFL:0.2

functions 1 8 string
time:T=(T+dt)
continuity:rho_dot=((-(rho*sph_D00(v,mass,rho,Wp52220)))+(((0.1*c)*h)*sph_L00(rho,mass,rho,Wp52220)))
irho:rho=(rho+int1(rho_dot,dt))
EOS:p=(((c^2)*(rho-rho0))+1000)
euler:a=if(gid,(0*v),(((-((1/rho)*sph_G11(p,mass,rho,Wp52220)))+(0.004*sph_L00(v,mass,rho,Wp52220)))+g))
vel:v=(v+int1(a,dt))
pos:r=if(gid,r,(r+int1(v,dt)))
new_dt:dt=(CFL*min(sqrt((h/fmax(magnitude(a)))),(h/c)))

POINTS 2029 float
-0.51413 -0.5125 0 -0.51413 -0.5375 0 -0.538043 -0.5125 0 
-0.538043 -0.5375 0 -0.490217 -0.5375 0 -0.490217 -0.5125 0 
-0.466304 -0.5375 0 -0.466304 -0.5125 0 -0.418478 -0.5375 0 
-0.442391 -0.5125 0 -0.442391 -0.5375 0 -0.418478 -0.5125 0 
-0.394565 -0.5125 0 -0.370652 -0.5375 0 -0.370652 -0.5125 0 
-0.394565 -0.5375 0 -0.346739 -0.5375 0 -0.346739 -0.5125 0 
-0.322826 -0.5375 0 -0.322826 -0.5125 0 -0.251087 -0.5125 0 
-0.298913 -0.5375 0 -0.251087 -0.5375 0 -0.298913 -0.5125 0 
-0.275 -0.5375 0 -0.275 -0.5125 0 -0.203261 -0.5125 0 
-0.227174 -0.5125 0 -0.203261 -0.5375 0 -0.227174 -0.5375 0 
-0.155435 -0.5375 0 -0.155435 -0.5125 0 -0.179348 -0.5125 0 
-0.179348 -0.5375 0 -0.131522 -0.5375 0 -0.131522 -0.5125 0 
-0.107609 -0.5125 0 -0.107609 -0.5375 0 -0.0597826 -0.5375 0 
-0.0597826 -0.5125 0 -0.0836956 -0.5125 0 -0.0836956 -0.5375 0 
-0.0119565 -0.5375 0 -0.0358695 -0.5125 0 -0.0358695 -0.5375 0 
-0.0119565 -0.5125 0 0.0358696 -0.5375 0 0.0119565 -0.5375 0 
0.0358696 -0.5125 0 0.0119565 -0.5125 0 0.0597826 -0.5125 0 
0.0836957 -0.5375 0 0.0836957 -0.5125 0 0.0597826 -0.5375 0 
0.131522 -0.5375 0 0.107609 -0.5125 0 0.107609 -0.5375 0 
0.131522 -0.5125 0 0.155435 -0.5125 0 0.179348 -0.5125 0 
0.179348 -0.5375 0 0.155435 -0.5375 0 0.203261 -0.5125 0 
0.227174 -0.5375 0 0.227174 -0.5125 0 0.203261 -0.5375 0 
0.251087 -0.5125 0 0.251087 -0.5375 0 0.298913 -0.5375 0 
0.298913 -0.5125 0 0.275 -0.5125 0 0.275 -0.5375 0 
0.346739 -0.5125 0 0.346739 -0.5375 0 0.322826 -0.5125 0 
0.322826 -0.5375 0 0.370652 -0.5375 0 0.370652 -0.5125 0 
0.394565 -0.5125 0 0.394565 -0.5375 0 0.418478 -0.5375 0 
0.418478 -0.5125 0 0.442391 -0.5375 0 0.442391 -0.5125 0 
0.466304 -0.5125 0 0.466304 -0.5375 0 0.490217 -0.5375 0 
0.490217 -0.5125 0 0.51413 -0.5125 0 0.538043 -0.5375 0 
0.51413 -0.5375 0 0.538043 -0.5125 0 -0.5125 -0.463415 0 
-0.5375 -0.463415 0 -0.5125 -0.487805 0 -0.5375 -0.487805 0 
-0.465582 -0.486212 0 -0.4654 -0.459352 0 -0.488465 -0.459544 0 
-0.488371 -0.486061 0 -0.419197 -0.486219 0 -0.442352 -0.48647 0 
-0.41892 -0.459599 0 -0.442288 -0.460401 0 -0.395831 -0.460038 0 
-0.372471 -0.487255 0 -0.372656 -0.461392 0 -0.396047 -0.486325 0 
-0.327764 -0.459642 0 -0.327622 -0.487421 0 -0.349968 -0.484496 0 
-0.30687 -0.482298 0 -0.308199 -0.451616 0 -0.349509 -0.456953 0 
-0.285261 -0.488496 0 -0.265062 -0.480913 0 -0.268233 -0.451013 0 
-0.288063 -0.461046 0 -0.202142 -0.459587 0 -0.24709 -0.460311 0 
-0.20153 -0.488604 0 -0.223967 -0.457833 0 -0.223046 -0.483721 0 
-0.244354 -0.488138 0 -0.160826 -0.489009 0 -0.15342 -0.465827 0 
-0.181668 -0.480977 0 -0.177762 -0.456026 0 -0.109812 -0.487274 0 
-0.12584 -0.465838 0 -0.134921 -0.488116 0 -0.0801724 -0.454999 0 
-0.0583973 -0.460606 0 -0.087208 -0.486017 0 -0.0998912 -0.460837 0 
-0.0664826 -0.484921 0 -0.0341425 -0.46476 0 -0.0106733 -0.457802 0 
-0.0193648 -0.486532 0 -0.0436964 -0.488468 0 0.0119872 -0.46225 0 
0.0252016 -0.488499 0 0.0436021 -0.48006 0 0.0287881 -0.45164 0 
0.00188941 -0.485659 0 0.0643695 -0.489224 0 0.0524144 -0.458156 0 
0.0904381 -0.487938 0 0.0768365 -0.467237 0 0.1486 -0.469243 0 
0.113477 -0.485839 0 0.105476 -0.46236 0 0.12705 -0.457738 0 
0.135818 -0.488596 0 0.191063 -0.489036 0 0.164197 -0.488838 0 
0.177441 -0.46692 0 0.237451 -0.472116 0 0.226271 -0.451411 0 
0.220844 -0.490416 0 0.206861 -0.470995 0 0.26956 -0.467254 0 
0.279212 -0.48974 0 0.253993 -0.451133 0 0.25186 -0.489034 0 
0.296755 -0.473089 0 0.347443 -0.454621 0 0.34577 -0.490256 0 
0.32912 -0.474433 0 0.320452 -0.452632 0 0.312007 -0.490452 0 
0.377638 -0.489716 0 0.378778 -0.45199 0 0.395059 -0.469752 0 
0.362824 -0.47204 0 0.412475 -0.452956 0 0.430466 -0.467137 0 
0.406872 -0.488469 0 0.433326 -0.488431 0 0.487186 -0.465518 0 
0.461841 -0.464743 0 0.459007 -0.487351 0 0.485917 -0.488605 0 
0.5375 -0.487805 0 0.5125 -0.487805 0 0.5375 -0.463415 0 
0.5125 -0.463415 0 -0.5375 -0.414634 0 -0.5125 -0.414634 0 
-0.5125 -0.439024 0 -0.5375 -0.439024 0 -0.459577 -0.409835 0 
-0.465236 -0.43315 0 -0.489021 -0.408025 0 -0.488049 -0.43317 0 
-0.417121 -0.433506 0 -0.434958 -0.409576 0 -0.409915 -0.4087 0 
-0.440876 -0.434957 0 -0.361945 -0.41231 0 -0.385779 -0.408571 0 
-0.393565 -0.434016 0 -0.370184 -0.435847 0 -0.301799 -0.427069 0 
-0.34402 -0.431597 0 -0.324581 -0.426405 0 -0.280515 -0.429485 0 
-0.261042 -0.41984 0 -0.299966 -0.401151 0 -0.236807 -0.408499 0 
-0.210355 -0.405913 0 -0.242859 -0.435415 0 -0.220128 -0.429729 0 
-0.162986 -0.405732 0 -0.170322 -0.434113 0 -0.197845 -0.434872 0 
-0.186231 -0.413427 0 -0.145595 -0.421168 0 -0.146195 -0.444771 0 
-0.11989 -0.443178 0 -0.121602 -0.418363 0 -0.0990948 -0.430146 0 
-0.0780269 -0.426772 0 -0.0921746 -0.402721 0 -0.0573731 -0.434429 0 
-0.0269351 -0.418627 0 -0.00598351 -0.40585 0 -0.0490605 -0.410353 0 
-0.034012 -0.44107 0 -0.00587117 -0.434589 0 0.0143103 -0.427635 0 
0.0365964 -0.426593 0 0.0835278 -0.423269 0 0.0870859 -0.446323 0 
0.0868399 -0.401087 0 0.0606321 -0.437845 0 0.0585772 -0.413171 0 
0.137011 -0.435533 0 0.111579 -0.412193 0 0.138921 -0.413071 0 
0.11073 -0.434114 0 0.197742 -0.449548 0 0.178697 -0.400187 0 
0.194208 -0.419118 0 0.158114 -0.447635 0 0.162004 -0.417194 0 
0.177641 -0.436964 0 0.244896 -0.429493 0 0.210614 -0.402517 0 
0.233644 -0.409759 0 0.216114 -0.43125 0 0.297286 -0.449588 0 
0.266136 -0.418919 0 0.292515 -0.417275 0 0.27799 -0.440209 0 
0.313894 -0.427487 0 0.340635 -0.432883 0 0.309435 -0.400071 0 
0.334097 -0.410771 0 0.367512 -0.433218 0 0.361208 -0.410761 0 
0.38828 -0.414987 0 0.399104 -0.434552 0 0.415339 -0.411081 0 
0.445623 -0.448559 0 0.4272 -0.430891 0 0.448188 -0.417951 0 
0.46461 -0.433186 0 0.48555 -0.443616 0 0.479625 -0.402564 0 
0.489242 -0.42016 0 0.5375 -0.414634 0 0.5375 -0.439024 0 
0.5125 -0.439024 0 0.5125 -0.414634 0 -0.5125 -0.390244 0 
-0.5125 -0.365854 0 -0.5375 -0.390244 0 -0.5375 -0.365854 0 
-0.472189 -0.391008 0 -0.490913 -0.376178 0 -0.477013 -0.357187 0 
-0.456326 -0.370463 0 -0.413176 -0.385857 0 -0.440772 -0.350077 0 
-0.422803 -0.364727 0 -0.440323 -0.386468 0 -0.360857 -0.361587 0 
-0.363544 -0.385287 0 -0.395198 -0.362734 0 -0.386488 -0.383652 0 
-0.341897 -0.399249 0 -0.338952 -0.370736 0 -0.321421 -0.397906 0 
-0.318253 -0.368129 0 -0.256002 -0.370128 0 -0.298032 -0.373429 0 
-0.258703 -0.393319 0 -0.279735 -0.363888 0 -0.279749 -0.396647 0 
-0.213357 -0.362081 0 -0.237116 -0.360087 0 -0.230994 -0.386369 0 
-0.204494 -0.38279 0 -0.157219 -0.379905 0 -0.182323 -0.387394 0 
-0.177992 -0.363421 0 -0.151133 -0.355243 0 -0.131327 -0.368763 0 
-0.110128 -0.369587 0 -0.137766 -0.394517 0 -0.113541 -0.395798 0 
-0.0672974 -0.37154 0 -0.0697808 -0.399818 0 -0.0883678 -0.375694 0 
-0.0470133 -0.383873 0 -0.0252749 -0.390749 0 -0.0480823 -0.354363 0 
-0.0266127 -0.363847 0 -0.00379077 -0.375999 0 0.0408479 -0.375442 0 
0.0172058 -0.371006 0 0.0145386 -0.399047 0 0.0358218 -0.399762 0 
0.0624361 -0.390301 0 0.0592364 -0.360958 0 0.0808788 -0.373907 0 
0.104577 -0.38471 0 0.128214 -0.391439 0 0.10478 -0.35948 0 
0.128536 -0.366823 0 0.153269 -0.366852 0 0.180639 -0.378723 0 
0.153524 -0.389627 0 0.174406 -0.35507 0 0.246468 -0.35783 0 
0.225518 -0.351793 0 0.229487 -0.378343 0 0.248036 -0.391587 0 
0.201244 -0.357372 0 0.206098 -0.380625 0 0.271872 -0.397515 0 
0.264829 -0.371549 0 0.290561 -0.35953 0 0.290357 -0.384524 0 
0.320337 -0.350693 0 0.313251 -0.373114 0 0.342993 -0.366344 0 
0.334113 -0.38785 0 0.388151 -0.352477 0 0.359904 -0.388728 0 
0.389527 -0.393662 0 0.37716 -0.373235 0 0.360815 -0.352931 0 
0.430364 -0.3943 0 0.408615 -0.381449 0 0.438411 -0.372241 0 
0.410636 -0.36002 0 0.465631 -0.374696 0 0.458327 -0.353776 0 
0.456114 -0.397289 0 0.489151 -0.35664 0 0.489268 -0.381484 0 
0.5125 -0.390244 0 0.5375 -0.390244 0 0.5375 -0.365854 0 
0.5125 -0.365854 0 -0.5375 -0.317073 0 -0.5125 -0.341463 0 
-0.5125 -0.317073 0 -0.5375 -0.341463 0 -0.478006 -0.319359 0 
-0.490777 -0.33853 0 -0.489644 -0.30074 0 -0.459535 -0.337271 0 
-0.408616 -0.30966 0 -0.449589 -0.314291 0 -0.428554 -0.326778 0 
-0.410661 -0.3423 0 -0.374147 -0.310222 0 -0.391876 -0.327121 0 
-0.377607 -0.346883 0 -0.358963 -0.329987 0 -0.32043 -0.314046 0 
-0.339847 -0.34282 0 -0.317961 -0.340108 0 -0.34162 -0.31225 0 
-0.298216 -0.310897 0 -0.281001 -0.324398 0 -0.260336 -0.308415 0 
-0.266225 -0.344416 0 -0.297408 -0.342296 0 -0.20661 -0.328517 0 
-0.22885 -0.337258 0 -0.224612 -0.310406 0 -0.249484 -0.329007 0 
-0.150893 -0.320172 0 -0.166747 -0.300747 0 -0.194459 -0.348396 0 
-0.198894 -0.30216 0 -0.182351 -0.319869 0 -0.168151 -0.338297 0 
-0.106517 -0.316218 0 -0.134224 -0.337755 0 -0.113539 -0.341741 0 
-0.12743 -0.309514 0 -0.085226 -0.32001 0 -0.0687454 -0.301179 0 
-0.0570775 -0.323828 0 -0.0704124 -0.343765 0 -0.0919435 -0.347729 0 
-0.0332055 -0.334985 0 -0.0081013 -0.349555 0 -0.0405672 -0.306762 0 
-0.0166523 -0.320615 0 0.0373449 -0.32008 0 0.00726963 -0.334005 0 
0.0465258 -0.341819 0 0.0148879 -0.312396 0 0.0247047 -0.349546 0 
0.052054 -0.301761 0 0.0658626 -0.327283 0 0.08936 -0.323507 0 
0.0740207 -0.300461 0 0.0817247 -0.348151 0 0.104046 -0.30632 0 
0.12763 -0.319719 0 0.14694 -0.308775 0 0.136408 -0.343959 0 
0.110733 -0.337215 0 0.169612 -0.314405 0 0.194897 -0.308509 0 
0.157121 -0.336401 0 0.185896 -0.333587 0 0.209907 -0.331466 0 
[...]
POINT_DATA 2029
SCALARS id float
LOOKUP_TABLE default
2 1 0 3 4 5 6 7 10 
9 8 11 14 13 15 12 19 17 
16 18 23 25 24 21 22 20 29 
28 26 27 33 30 32 31 34 37 
36 35 41 40 38 39 43 42 45 
44 49 48 46 47 53 52 51 50 
55 56 54 57 59 61 60 58 62 
63 64 65 71 67 70 66 69 68 
75 72 73 74 78 77 76 79 80 
83 81 82 87 85 86 84 90 89 
88 91 92 93 94 95 97 96 99 
98 100 103 102 194 101 104 105 106 
111 112 108 109 116 107 117 119 123 
113 132 129 128 127 126 122 130 141 
131 137 138 142 135 149 150 140 146 
143 154 158 148 147 246 152 153 155 
151 159 162 157 161 165 156 164 254 
163 167 160 253 168 352 166 258 257 
170 350 169 259 262 173 175 261 171 
172 264 174 263 363 266 176 179 177 
265 180 178 182 183 181 184 186 187 
185 188 191 192 190 189 195 199 197 
193 202 201 198 200 115 110 114 124 
121 118 223 221 217 133 229 139 134 
136 234 145 144 238 239 243 241 240 
247 251 341 245 244 249 250 255 248 
442 348 349 445 447 536 353 355 537 
444 256 446 347 541 534 631 452 260 
540 448 351 354 357 450 449 358 456 
454 356 360 267 362 359 361 268 455 
453 271 269 272 270 274 276 275 273 
277 278 281 282 289 284 283 196 300 
205 291 203 212 209 210 120 226 125 
215 222 219 232 224 225 228 235 230 
233 332 337 336 237 236 342 242 339 
340 252 345 343 346 441 435 344 440 
443 533 530 535 630 721 722 723 627 
626 814 911 910 909 819 907 726 817 
912 727 632 816 539 725 451 724 634 
538 818 822 542 633 544 728 545 637 
457 635 543 365 364 367 366 370 369 
371 368 372 280 374 279 295 290 288 
286 296 204 206 211 304 208 213 214 
218 313 227 220 216 327 231 323 319 
334 335 326 328 330 331 522 338 434 
427 433 525 430 431 432 437 438 528 
439 624 436 621 531 532 625 629 720 
718 628 809 808 908 813 815 1001 1003 
906 904 1004 1100 1002 1099 1010 1005 1193 
823 824 1008 916 1101 1102 1006 1009 915 
914 638 731 729 730 732 636 820 461 
458 460 459 464 463 465 462 378 285 
375 387 383 293 380 287 294 299 292 
207 303 311 310 305 318 309 314 321 
316 329 325 324 322 333 422 423 429 
426 523 428 521 524 615 617 527 713 
712 618 529 622 623 619 719 901 812 
717 1000 902 905 998 1189 999 1095 1097 
1186 1096 1188 1192 1283 1191 1280 1281 1470 
1286 1374 1282 1376 1105 1190 1194 1197 1103 
1284 913 1104 821 1011 1007 1196 546 548 
549 547 550 552 553 551 373 377 469 
376 379 384 382 381 308 306 302 389 
297 312 315 401 307 412 405 320 317 
420 415 421 419 418 514 424 425 612 
519 526 518 613 710 609 616 620 614 
714 805 715 708 716 806 804 810 997 
900 811 903 1094 1093 996 1098 995 1092 
1187 1182 1184 1278 1277 1367 1276 1467 1371 
1372 1370 1375 1466 1469 1373 1561 1379 1558 
1471 1651 1564 1285 1472 1378 1377 1473 1195 
1287 639 642 640 641 644 645 646 643 
466 467 468 470 385 392 475 474 471 
477 301 388 394 298 397 402 400 404 
406 411 417 410 408 413 512 416 515 
513 511 516 517 610 611 520 704 711 
706 707 801 800 802 803 709 807 897 
899 896 992 991 994 1087 1088 1177 1090 
1181 1091 1275 1183 1368 1369 1279 1366 1463 
1465 1553 1468 1557 1560 1559 1555 1554 1650 
1653 1744 1652 1745 1654 1749 1658 1656 1750 
1563 1562 1474 735 736 734 733 738 737 
740 739 560 556 554 386 472 476 562 
393 391 480 395 398 497 403 409 499 
407 501 504 503 508 414 506 601 603 
597 606 510 607 605 608 602 700 703 
705 698 798 796 797 799 894 892 895 
893 989 988 993 898 1082 1084 1086 1089 
1180 1172 1179 1178 1268 1185 1273 1364 1272 
1271 1459 1464 1556 1365 1550 1552 1549 1649 
1648 1837 1843 1832 1838 1743 1746 1657 1655 
1748 1841 827 826 828 825 830 829 831 
832 557 555 558 559 473 566 561 564 
396 390 485 481 479 482 490 399 493 
491 496 495 498 494 505 507 500 596 
502 599 689 600 509 694 701 604 695 
696 702 699 697 793 888 792 794 795 
886 889 984 890 891 985 990 1085 987 
1176 1174 1083 1078 1267 1266 1262 1263 1269 
1363 1274 1270 1460 1458 1362 1462 1742 1835 
1645 1551 1646 1833 1836 1923 1834 1925 1928 
1932 1839 1929 1840 1842 1747 1931 917 920 
919 918 921 926 923 922 925 924 651 
647 650 652 478 569 653 565 563 483 
579 487 573 488 484 587 492 584 593 
592 595 590 691 685 598 594 690 784 
692 786 693 788 791 789 790 882 883 
881 885 979 884 981 887 983 1079 1075 
986 1080 1173 1168 1081 1265 1260 1264 1175 
1358 1355 1360 1356 1359 1644 1641 1461 1456 
1740 1741 1917 1831 1647 1922 1919 1826 1913 
1914 1829 1924 1920 1909 1927 1926 1930 1921 
1015 1014 1016 1017 1012 1013 1021 1020 1019 
1018 741 648 743 649 570 659 655 568 
575 567 572 574 578 582 489 486 577 
580 589 583 586 585 591 679 682 588 
688 686 684 780 785 783 687 876 875 
878 787 877 880 977 879 975 980 974 
978 1076 1074 1072 1077 982 1170 1167 1165 
1171 1353 1169 1351 1261 1258 1259 1354 1457 
1454 1451 1361 1548 1643 1455 1737 1738 1828 
1642 1736 1830 1735 1734 1824 1918 1822 1825 
1903 1908 1915 1906 1106 1109 1108 1107 1110 
1113 1111 1112 834 744 742 836 656 745 
658 654 663 747 662 666 571 668 576 
670 581 672 674 669 675 677 676 683 
771 678 779 777 680 681 874 781 778 
782 873 872 967 871 973 1068 971 970 
972 1065 976 1069 1073 1070 1071 1162 1163 
1164 1257 1256 1166 1160 1251 1254 1347 1352 
1255 1350 1447 1357 1448 1546 1452 1545 1449 
1453 1544 1739 1639 1732 1637 1633 1733 1730 
1729 1823 1821 1820 1827 1904 1916 1911 1910 
1905 1200 1201 1199 1198 1205 1203 1202 1204 
930 833 929 838 840 657 749 748 746 
664 750 660 756 671 665 661 667 769 
764 761 673 765 768 773 767 772 776 
775 766 774 861 864 865 870 867 868 
869 965 968 962 969 1059 1061 1060 966 
1066 1064 1063 1067 1158 1161 1156 1157 1253 
1252 1249 1250 1343 1349 1348 1346 1533 1450 
1443 1446 1547 1542 1543 1638 1636 1640 1635 
1540 1728 1818 1629 1725 1731 1892 1815 1901 
1902 1900 1899 1897 1912 1288 1290 1289 1291 
1293 1295 1294 1292 835 927 1023 1025 844 
837 932 839 753 751 752 754 842 755 
760 759 762 857 757 758 763 856 858 
770 860 854 957 859 862 866 960 958 
863 961 1058 963 964 1055 1062 1056 1154 
1152 1150 1153 1248 1159 1245 1155 1246 1342 
1340 1341 1442 1345 1344 1438 1437 1529 1444 
1445 1532 1539 1538 1537 1541 1630 1632 1727 
1726 1634 1631 1817 1893 1898 1907 1819 1809 
1890 1894 1383 1382 1381 1380 1387 1384 1385 
1386 928 1024 1116 1117 1022 1027 931 934 
933 845 843 936 841 939 849 848 847 
846 853 851 850 852 951 948 944 855 
953 949 950 955 956 954 1047 1053 959 
1052 1048 1054 1057 1149 1151 1051 1146 1239 
1148 1242 1247 1244 1241 1243 1337 1339 1336 
1334 1439 1436 1435 1432 1338 1440 1531 1527 
1441 1628 1530 1534 1528 1535 1623 1625 1536 
1624 1627 1723 1722 1724 1719 1810 1812 1816 
1895 1889 1883 1891 1886 1475 1476 1477 1478 
1482 1481 1479 1480 1207 1114 1115 1206 1121 
1030 1028 1029 935 1032 1034 938 942 1031 
940 937 947 946 943 1038 941 945 1041 
1042 952 1043 1039 1044 1046 1045 1138 1049 
1050 1142 1140 1139 1143 1141 1144 1232 1147 
1145 1237 1236 1238 1235 1234 1240 1333 1332 
1331 1329 1425 1430 1335 1330 1434 1433 1431 
1524 1525 1526 1429 1617 1619 1615 1620 1621 
1714 1622 1710 1715 1721 1718 1626 1716 1811 
1813 1896 1814 1879 1888 1808 1806 1880 1568 
1565 1567 1566 1572 1570 1571 1569 1297 1299 
1208 1298 1120 1209 1212 1026 1119 1210 1118 
1211 1122 1123 1125 1124 1033 1035 1130 1036 
1037 1133 1127 1040 1129 1225 1132 1224 1134 
1135 1136 1222 1131 1228 1137 1227 1229 1226 
1230 1233 1231 1324 1322 1321 1328 1421 1326 
1327 1325 1422 1426 1514 1428 1423 1424 1518 
1521 1519 1427 1523 1517 1520 1607 1613 1618 
1614 1522 1706 1709 1711 1712 1616 1717 1708 
1800 1803 1807 1720 1713 1805 1876 1871 1873 
1887 1660 1659 1661 1662 1665 1666 1663 1664 
1388 1392 1390 1389 1296 1302 1394 1303 1301 
1300 1213 1306 1305 1400 1215 1214 1216 1126 
1220 1128 1307 1221 1217 1311 1219 1223 1218 
1405 1314 1308 1310 1313 1318 1315 1408 1316 
1406 1410 1317 1320 1414 1412 1323 1319 1411 
1418 1417 1419 1511 1506 1415 1509 1508 1420 
1513 1416 1515 1603 1516 1606 1605 1610 1609 
1608 1705 1707 1699 1612 1611 1794 1797 1795 
1696 1793 1801 1885 1790 1799 1798 1804 1802 
1884 1877 1867 1872 1882 1754 1751 1753 1752 
1757 1758 1756 1755 1391 1484 1485 1483 1395 
1396 1487 1489 1490 1488 1397 1393 1494 1399 
1398 1495 1491 1309 1493 1402 1304 1312 1401 
1403 1404 1409 1497 1589 1496 1407 1498 1501 
1500 1587 1591 1503 1502 1684 1772 1507 1594 
1413 1683 1774 1592 1505 1593 1600 1504 1597 
1686 1595 1598 1596 1602 1510 1512 1688 1601 
1599 1690 1701 1695 1691 1604 1702 1697 1692 
1698 1704 1703 1700 1789 1786 1787 1874 1784 
1792 1791 1796 1878 1783 1870 1785 1875 1881 
1846 1845 1847 1844 1850 1849 1848 1851 1573 
1486 1576 1574 1577 1580 1581 1578 1575 1579 
1667 1669 1672 1492 1670 1583 1673 1585 1765 
1588 1674 1759 1499 1677 1584 1582 1586 1763 
1590 1853 1680 1764 1678 1675 1671 1681 1668 
1676 1766 1682 1760 1777 1679 1761 1762 1860 
1770 1856 1768 1687 1775 1780 1685 1861 1771 
1689 1694 1769 1852 1864 1778 1855 1776 1773 
1865 1767 1693 1858 1781 1779 1854 1857 1859 
1788 1862 1863 1866 1869 1868 1782 1933 1936 
1934 1935 1938 1940 1939 1937 1941 1943 1944 
1942 1945 1946 1948 1947 1949 1950 1952 1951 
1955 1956 1954 1953 1957 1958 1959 1961 1962 
1960 1966 1965 1964 1963 1968 1970 1969 1967 
1972 1973 1974 1971 1976 1978 1975 1977 1980 
1981 1982 1979 1983 1984 1985 1986 1987 1990 
1988 1989 1992 1993 1991 1994 1998 1997 1995 
1996 2002 2001 2000 1999 2003 2006 2008 2004 
2005 2007 2010 2011 2012 2009 2015 2013 2016 
2014 2019 2018 2017 2020 2021 2022 2023 2024 
2025 2026 2027 2028 
FIELD FieldData 7
gid 1 2029 float
1 1 1 1 1 1 1 1 1 
1 1 1 1 1 1 1 1 1 
1 1 1 1 1 1 1 1 1 
1 1 1 1 1 1 1 1 1 
1 1 1 1 1 1 1 1 1 
1 1 1 1 1 1 1 1 1 
1 1 1 1 1 1 1 1 1 
1 1 1 1 1 1 1 1 1 
1 1 1 1 1 1 1 1 1 
1 1 1 1 1 1 1 1 1 
1 1 1 1 1 1 0 0 0 
0 0 0 0 0 0 0 0 0 
0 0 0 0 0 0 0 0 0 
0 0 0 0 0 0 0 0 0 
0 0 0 0 0 0 0 0 0 
0 0 0 0 0 0 0 0 0 
0 0 0 0 0 0 0 0 0 
0 0 0 0 0 0 0 0 0 
0 0 0 0 0 0 0 0 0 
0 0 0 0 0 0 0 0 0 
0 0 0 1 1 1 1 1 1 
1 1 0 0 0 0 0 0 0 
0 0 0 0 0 0 0 0 0 
0 0 0 0 0 0 0 0 0 
0 0 0 0 0 0 0 0 0 
0 0 0 0 0 0 0 0 0 
0 0 0 0 0 0 0 0 0 
0 0 0 0 0 0 0 0 0 
0 0 0 0 0 0 0 0 0 
0 0 0 0 0 0 0 0 0 
0 1 1 1 1 1 1 1 1 
0 0 0 0 0 0 0 0 0 
0 0 0 0 0 0 0 0 0 
0 0 0 0 0 0 0 0 0 
0 0 0 0 0 0 0 0 0 
0 0 0 0 0 0 0 0 0 
0 0 0 0 0 0 0 0 0 
0 0 0 0 0 0 0 0 0 
0 0 0 0 0 0 0 0 0 
0 0 0 0 0 0 0 0 0 
0 0 0 1 1 1 1 1 1 
1 1 0 0 0 0 0 0 0 
0 0 0 0 0 0 0 0 0 
0 0 0 0 0 0 0 0 0 
0 0 0 0 0 0 0 0 0 
0 0 0 0 0 0 0 0 0 
0 0 0 0 0 0 0 0 0 
0 0 0 0 0 0 0 0 0 
0 0 0 0 0 0 0 0 0 
0 0 0 0 0 0 0 0 0 
0 0 0 0 0 0 0 0 1 
1 1 1 1 1 1 1 0 0 
0 0 0 0 0 0 0 0 0 
0 0 0 0 0 0 0 0 0 
0 0 0 0 0 0 0 0 0 
0 0 0 0 0 0 0 0 0 
0 0 0 0 0 0 0 0 0 
0 0 0 0 0 0 0 0 0 
0 0 0 0 0 0 0 0 0 
0 0 0 0 0 0 0 0 0 
0 0 0 0 0 0 0 1 1 
1 1 1 1 1 1 0 0 0 
0 0 0 0 0 0 0 0 0 
0 0 0 0 0 0 0 0 0 
0 0 0 0 0 0 0 0 0 
0 0 0 0 0 0 0 0 0 
0 0 0 0 0 0 0 0 0 
0 0 0 0 0 0 0 0 0 
0 0 0 0 0 0 0 0 0 
0 0 0 0 0 0 0 0 0 
0 0 0 0 0 0 0 0 0 
0 1 1 1 1 1 1 1 1 
0 0 0 0 0 0 0 0 0 
0 0 0 0 0 0 0 0 0 
0 0 0 0 0 0 0 0 0 
0 0 0 0 0 0 0 0 0 
0 0 0 0 0 0 0 0 0 
0 0 0 0 0 0 0 0 0 
0 0 0 0 0 0 0 0 0 
0 0 0 0 0 0 0 0 0 
0 0 0 0 0 0 0 0 0 
0 0 0 1 1 1 1 1 1 
1 1 0 0 0 0 0 0 0 
0 0 0 0 0 0 0 0 0 
0 0 0 0 0 0 0 0 0 
0 0 0 0 0 0 0 0 0 
0 0 0 0 0 0 0 0 0 
0 0 0 0 0 0 0 0 0 
0 0 0 0 0 0 0 0 0 
0 0 0 0 0 0 0 0 0 
0 0 0 0 0 0 0 0 0 
0 0 1 1 1 1 1 1 1 
1 0 0 0 0 0 0 0 0 
0 0 0 0 0 0 0 0 0 
0 0 0 0 0 0 0 0 0 
0 0 0 0 0 0 0 0 0 
0 0 0 0 0 0 0 0 0 
0 0 0 0 0 0 0 0 0 
0 0 0 0 0 0 0 0 0 
0 0 0 0 0 0 0 0 0 
0 0 0 0 0 0 0 0 0 
0 0 0 0 0 0 0 1 1 
1 1 1 1 1 1 1 1 0 
0 0 0 0 0 0 0 0 0 
0 0 0 0 0 0 0 0 0 
0 0 0 0 0 0 0 0 0 
0 0 0 0 0 0 0 0 0 
0 0 0 0 0 0 0 0 0 
0 0 0 0 0 0 0 0 0 
0 0 0 0 0 0 0 0 0 
0 0 0 0 0 0 0 0 0 
0 0 0 0 0 0 0 0 0 
1 1 1 1 1 1 1 1 1 
1 0 0 0 0 0 0 0 0 
0 0 0 0 0 0 0 0 0 
0 0 0 0 0 0 0 0 0 
0 0 0 0 0 0 0 0 0 
0 0 0 0 0 0 0 0 0 
0 0 0 0 0 0 0 0 0 
0 0 0 0 0 0 0 0 0 
0 0 0 0 0 0 0 0 0 
0 0 0 0 0 0 0 0 0 
0 0 0 0 1 1 1 1 1 
1 1 1 0 0 0 0 0 0 
0 0 0 0 0 0 0 0 0 
0 0 0 0 0 0 0 0 0 
0 0 0 0 0 0 0 0 0 
0 0 0 0 0 0 0 0 0 
0 0 0 0 0 0 0 0 0 
0 0 0 0 0 0 0 0 0 
0 0 0 0 0 0 0 0 0 
0 0 0 0 0 0 0 0 0 
0 0 0 0 0 0 0 0 0 
0 1 1 1 1 1 1 1 1 
0 0 0 0 0 0 0 0 0 
0 0 0 0 0 0 0 0 0 
0 0 0 0 0 0 0 0 0 
0 0 0 0 0 0 0 0 0 
0 0 0 0 0 0 0 0 0 
0 0 0 0 0 0 0 0 0 
0 0 0 0 0 0 0 0 0 
0 0 0 0 0 0 0 0 0 
0 0 0 0 0 0 0 0 0 
0 0 0 0 0 1 1 1 1 
1 1 1 1 0 0 0 0 0 
0 0 0 0 0 0 0 0 0 
0 0 0 0 0 0 0 0 0 
0 0 0 0 0 0 0 0 0 
0 0 0 0 0 0 0 0 0 
0 0 0 0 0 0 0 0 0 
0 0 0 0 0 0 0 0 0 
0 0 0 0 0 0 0 0 0 
0 0 0 0 0 0 0 0 0 
0 0 1 1 1 1 1 1 1 
1 0 0 0 0 0 0 0 0 
0 0 0 0 0 0 0 0 0 
0 0 0 0 0 0 0 0 0 
0 0 0 0 0 0 0 0 0 
0 0 0 0 0 0 0 0 0 
0 0 0 0 0 0 0 0 0 
0 0 0 0 0 0 0 0 0 
0 0 0 0 0 0 0 0 0 
0 0 0 0 0 0 0 0 0 
0 0 0 0 0 1 1 1 1 
1 1 1 1 0 0 0 0 0 
0 0 0 0 0 0 0 0 0 
0 0 0 0 0 0 0 0 0 
0 0 0 0 0 0 0 0 0 
0 0 0 0 0 0 0 0 0 
0 0 0 0 0 0 0 0 0 
0 0 0 0 0 0 0 0 0 
0 0 0 0 0 0 0 0 0 
0 0 0 0 0 0 0 0 0 
0 0 0 0 0 0 0 0 1 
1 1 1 1 1 1 1 0 0 
0 0 0 0 0 0 0 0 0 
0 0 0 0 0 0 0 0 0 
0 0 0 0 0 0 0 0 0 
0 0 0 0 0 0 0 0 0 
0 0 0 0 0 0 0 0 0 
0 0 0 0 0 0 0 0 0 
0 0 0 0 0 0 0 0 0 
0 0 0 0 0 0 0 0 0 
0 0 0 0 0 0 0 0 0 
0 1 1 1 1 1 1 1 1 
0 0 0 0 0 0 0 0 0 
0 0 0 0 0 0 0 0 0 
0 0 0 0 0 0 0 0 0 
0 0 0 0 0 0 0 0 0 
0 0 0 0 0 0 0 0 0 
0 0 0 0 0 0 0 0 0 
0 0 0 0 0 0 0 0 0 
0 0 0 0 0 0 0 0 0 
0 0 0 0 0 0 0 0 0 
0 0 0 0 0 1 1 1 1 
1 1 1 1 0 0 0 0 0 
0 0 0 0 0 0 0 0 0 
0 0 0 0 0 0 0 0 0 
0 0 0 0 0 0 0 0 0 
0 0 0 0 0 0 0 0 0 
0 0 0 0 0 0 0 0 0 
0 0 0 0 0 0 0 0 0 
0 0 0 0 0 0 0 0 0 
0 0 0 0 0 0 0 0 0 
0 0 0 0 0 0 0 0 0 
1 1 1 1 1 1 1 1 0 
0 0 0 0 0 0 0 0 0 
0 0 0 0 0 0 0 0 0 
0 0 0 0 0 0 0 0 0 
0 0 0 0 0 0 0 0 0 
0 0 0 0 0 0 0 0 0 
0 0 0 0 0 0 0 0 0 
0 0 0 0 0 0 0 0 0 
0 0 0 0 0 0 0 0 0 
0 0 0 0 0 0 0 1 1 
1 1 2 2 2 2 2 2 2 
2 2 2 2 2 2 2 2 2 
2 2 2 2 2 2 2 2 2 
2 2 2 2 2 2 2 2 2 
2 2 2 2 2 2 2 2 2 
2 2 2 2 2 2 2 2 2 
2 2 2 2 2 2 2 2 2 
2 2 2 2 2 2 2 2 2 
2 2 2 2 2 2 2 2 2 
2 2 2 2 2 2 2 2 2 
2 2 2 2 
a 3 2029 float
0 0 0 0 0 0 0 0 0 
0 0 0 0 0 0 0 0 0 
0 0 0 0 0 0 0 0 0 
0 0 0 0 0 0 0 0 0 
0 0 0 0 0 0 0 0 0 
0 0 0 0 0 0 0 0 0 
0 0 0 0 0 0 0 0 0 
0 0 0 0 0 0 0 0 0 
0 0 0 0 0 0 0 0 0 
0 0 0 0 0 0 0 0 0 
0 0 0 0 0 0 0 0 0 
0 0 0 0 0 0 0 0 0 
0 0 0 0 0 0 0 0 0 
0 0 0 0 0 0 0 0 0 
0 0 0 0 0 0 0 0 0 
0 0 0 0 0 0 0 0 0 
0 0 0 0 0 0 0 0 0 
0 0 0 0 0 0 0 0 0 
0 0 0 0 0 0 0 0 0 
0 0 0 0 0 0 0 0 0 
0 0 0 0 0 0 0 0 0 
0 0 0 0 0 0 0 0 0 
0 0 0 0 0 0 0 0 0 
0 0 0 0 0 0 0 0 0 
0 0 0 0 0 0 0 0 0 
0 0 0 0 0 0 0 0 0 
0 0 0 0 0 0 0 0 0 
0 0 0 0 0 0 0 0 0 
0 0 0 0 0 0 0 0 0 
0 0 0 0 0 0 0 0 0 
0 0 0 0 0 0 0 0 0 
0 0 0 0 0 0 0 0 0 
-0.341495 -0.0390536 0 -0.220935 -0.289148 0 -0.215512 -0.159038 0 
-0.791984 -0.70208 0 -0.290539 0.0400713 0 -0.501132 -0.283193 0 
-0.240758 -0.219245 0 -0.368809 -0.122635 0 -0.47149 0.270383 0 
-0.322551 0.319546 0 -0.302661 0.00710991 0 -0.231948 0.0562352 0 
-0.334389 1.40531 0 -0.0451993 0.997015 0 0.0425429 0.19713 0 
-0.319366 0.427266 0 -0.525077 0.000784069 0 -0.481282 -0.27702 0 
-0.366147 0.934946 0 -0.729162 0.00589353 0 -1.07658 -0.339892 0 
-0.512317 1.49106 0 -0.388395 -0.213542 0 -0.669357 1.20488 0 
-0.859735 1.14164 0 -0.337064 1.45143 0 -1.01662 0.435046 0 
-0.631134 1.80808 0 -0.496216 0.973564 0 -0.568549 1.12562 0 
-0.650713 0.0765095 0 0.233742 1.19172 0 0.163184 0.0215343 0 
-0.45898 -0.00836572 0 -0.963026 0.794842 0 -0.360147 1.38961 0 
-0.099817 0.566185 0 -0.0280782 0.700443 0 -0.525133 0.878879 0 
-0.0984639 0.634201 0 0.111473 1.29995 0 0.178215 0.638104 0 
-0.298551 0.370373 0 0.136221 0.498208 0 0.267738 1.12431 0 
-0.253923 0.889667 0 0.380929 -0.184283 0 0.996169 0.00879002 0 
0.0218868 0.0904005 0 0.0769487 -0.0379031 0 0.541835 1.55525 0 
0.0695578 0.718111 0 -0.285272 0.922348 0 0.15445 0.0159578 0 
0.0114508 -0.326129 0 0.153263 -0.10707 0 0.35784 -0.357821 0 
0.938119 -0.292944 0 0.611652 -0.224524 0 1.10249 0.386392 0 
-0.0790201 0.679216 0 0.408136 -0.167032 0 -0.185052 0.561516 0 
0.796732 -0.0981036 0 0.508899 0.110145 0 0.308885 0.0235494 0 
1.07136 -0.117196 0 0.272634 -0.236941 0 0.626524 -0.0958862 0 
-0.132945 0.726556 0 1.77837 0.771903 0 -0.422803 0.0432247 0 
-0.0551777 0.500292 0 1.13996 0.12411 0 0.439251 0.370533 0 
-0.0635553 0.358242 0 0.912929 0.189381 0 0.34344 -0.132821 0 
-0.173441 -0.025451 0 0.55273 1.59848 0 -0.918565 0.486775 0 
0.23115 0.561638 0 0.165787 0.934119 0 -0.708878 1.06263 0 
-1.07993 1.04167 0 0.201775 0.854082 0 -0.647049 1.33138 0 
0 0 0 0 0 0 0 0 0 
0 0 0 0 0 0 0 0 0 
0 0 0 0 0 0 -0.0217577 -0.252415 0 
-0.155707 -0.061558 0 0.0204485 0.0961843 0 0.0555635 -0.28783 0 
-0.282184 -0.249586 0 0.0696869 -0.300401 0 -0.131138 -0.271001 0 
-0.227082 -0.269845 0 -0.771726 -0.432685 0 -0.616406 -0.169031 0 
-0.246477 0.0131246 0 -0.128187 -0.326687 0 -0.617546 0.146776 0 
-0.118452 -0.0708417 0 -0.799132 1.42264 0 -0.287335 2.48429 0 
-0.093781 0.506457 0 -0.278972 -1.00806 0 0.110491 1.84955 0 
0.0760439 -0.884959 0 -0.816589 0.99342 0 -1.02054 -0.748921 0 
-0.687965 0.516998 0 -0.645309 1.19546 0 -0.350901 -0.248355 0 
-0.84994 0.892919 0 0.0157602 2.00204 0 0.0890895 1.87372 0 
-0.850153 0.373681 0 -0.155891 1.20289 0 -0.332663 0.543554 0 
-0.234016 0.755556 0 -0.517027 1.06783 0 0.218491 0.462257 0 
0.116521 1.20455 0 -0.460384 0.478709 0 -0.142378 1.61185 0 
-0.18031 1.35437 0 1.06475 -0.183243 0 -0.323372 0.152389 0 
-0.76564 1.38967 0 0.73426 0.533445 0 0.630473 0.254055 0 
0.577383 0.846992 0 0.568948 1.50746 0 0.119389 1.0575 0 
0.094223 0.223016 0 0.457155 0.758751 0 -0.211259 1.13257 0 
0.706434 0.261404 0 -0.0386457 -0.375502 0 0.610875 0.356481 0 
0.480262 -0.456093 0 -0.535088 0.854728 0 -0.314672 0.154431 0 
-0.145821 0.606198 0 -0.0914219 -0.261935 0 -0.0970921 0.621067 0 
-0.152989 1.01431 0 0.456942 0.844855 0 -0.335111 -0.0709146 0 
-0.120486 0.683781 0 1.09172 0.159012 0 -0.676787 1.33595 0 
-0.322854 -1.41443 0 0.0467552 1.29288 0 -0.435407 0.291789 0 
0.113359 0.484206 0 -0.531972 0.440216 0 0.404913 1.26608 0 
0.211975 0.348616 0 -0.901326 0.522862 0 0.0259575 -0.0178156 0 
0.610718 1.34075 0 0.888782 0.6702 0 0.201044 1.18087 0 
1.39911 2.12061 0 0.214252 1.01648 0 -0.263196 1.44172 0 
-0.0424828 2.1016 0 0 0 0 0 0 0 
0 0 0 0 0 0 0 0 0 
0 0 0 0 0 0 0 0 0 
0.00321297 -0.171397 0 0.243011 0.0528138 0 0.0585888 0.178292 0 
-0.0853829 -0.29252 0 -0.138309 -0.0920605 0 -0.581367 -0.119217 0 
-0.601694 -0.275601 0 0.0222855 -0.30112 0 -0.250451 0.212565 0 
-0.66942 0.0660241 0 -0.417255 -0.106194 0 -0.251163 -0.00661238 0 
-1.00732 -0.525467 0 -0.630762 -1.13652 0 -0.432148 1.17666 0 
-0.443862 0.201566 0 -0.141571 0.51815 0 -0.51715 -1.96771 0 
0.531896 0.653499 0 -0.223357 -0.835856 0 0.570328 0.0420228 0 
0.382884 0.36474 0 -0.334865 1.27594 0 0.559068 0.942045 0 
-0.685284 0.114986 0 0.269978 0.00506817 0 -0.2337 1.18482 0 
-0.205288 -0.0390193 0 -0.712668 1.05963 0 -0.253797 1.96897 0 
-0.450564 1.49111 0 -0.0193895 1.89955 0 -0.227758 0.899906 0 
-0.379228 0.67745 0 -0.374043 0.190977 0 -0.0129429 0.636944 0 
-0.366962 0.988313 0 -0.325666 1.31234 0 -0.521715 1.00973 0 
-0.104794 0.838107 0 0.663409 0.06582 0 -0.691071 0.975167 0 
0.372347 -0.0332676 0 -0.0108447 0.632127 0 0.995562 0.727764 0 
0.694248 1.04285 0 -0.446679 0.624462 0 0.283517 0.68095 0 
0.328447 0.78116 0 0.522924 1.4837 0 0.274123 1.24842 0 
0.0271939 1.41821 0 0.556649 -0.0044778 0 0.697361 0.997212 0 
0.977207 -0.151466 0 -0.722107 1.30186 0 1.18784 1.36625 0 
0.363522 1.24843 0 0.735306 2.2788 0 -0.379353 0.402128 0 
0.0791233 1.40929 0 0.421307 0.877005 0 -0.244804 0.469844 0 
0.650493 0.73001 0 1.22299 0.202488 0 -0.630354 0.464713 0 
1.49554 1.4119 0 0.909749 -0.0798981 0 -0.0646453 0.416266 0 
0.0934953 0.109434 0 0.778737 0.69129 0 0.711198 0.962907 0 
0.690722 0.60776 0 -0.190066 1.52792 0 -0.0813302 1.24208 0 
0.312915 0.327731 0 -0.0820431 0.617289 0 -0.348596 0.700737 0 
0.870768 0.829714 0 0.174902 1.54721 0 0.527299 1.43659 0 
-0.136992 2.34318 0 0.457364 0.738889 0 0.278774 1.28789 0 
0 0 0 0 0 0 0 0 0 
0 0 0 0 0 0 0 0 0 
0 0 0 0 0 0 -0.552028 0.132842 0 
0.0659456 -0.115892 0 -0.262233 0.0881167 0 -0.532057 0.295998 0 
-0.588505 0.27898 0 -0.188 -0.0574908 0 -0.272421 -0.496136 0 
-0.313038 -0.136195 0 -0.106403 -0.705295 0 -0.108844 -0.149728 0 
-0.462545 -0.0764294 0 0.211529 0.0406089 0 0.154267 -2.2804 0 