# vtk DataFile Version 4.0
vtk output
ASCII
DATASET POLYDATA
FIELD FieldData 4
domain 1 3 string
domain_min:-1000|-1000
domain_max:1000|1000
cell_size:0.05

variables 1 1 string
T:0.146

constants 1 6 string
csize:0.05
dx:0.0238095
rho0:1000
mass:0.566894
dt:0.002
a:0.1

functions 1 3 string
eq0:T=(T+dt)
eq1:Temp_dot=if(gid,0,(a*sph_L00(Temp,mass,rho0,Wp22220)))
p2:Temp=(Temp+int1(Temp_dot,dt))

POINTS 2029 float
-0.5125 -0.51413 0 -0.5375 -0.538043 0 -0.5375 -0.51413 0 
-0.5125 -0.538043 0 -0.487805 -0.5125 0 -0.463415 -0.5375 0 
-0.463415 -0.5125 0 -0.487805 -0.5375 0 -0.414634 -0.5125 0 
-0.439024 -0.5125 0 -0.414634 -0.5375 0 -0.439024 -0.5375 0 
-0.390244 -0.5125 0 -0.365854 -0.5125 0 -0.365854 -0.5375 0 
-0.390244 -0.5375 0 -0.341463 -0.5375 0 -0.317073 -0.5125 0 
-0.317073 -0.5375 0 -0.341463 -0.5125 0 -0.292683 -0.5375 0 
-0.268293 -0.5375 0 -0.268293 -0.5125 0 -0.292683 -0.5125 0 
-0.243902 -0.5375 0 -0.219512 -0.5125 0 -0.219512 -0.5375 0 
-0.243902 -0.5125 0 -0.195122 -0.5125 0 -0.170732 -0.5125 0 
-0.170732 -0.5375 0 -0.195122 -0.5375 0 -0.121951 -0.5375 0 
-0.121951 -0.5125 0 -0.146341 -0.5125 0 -0.146341 -0.5375 0 
-0.0731707 -0.5125 0 -0.0731707 -0.5375 0 -0.097561 -0.5375 0 
-0.097561 -0.5125 0 -0.0487805 -0.5125 0 -1.86265e-08 -0.5125 0 
-1.86265e-08 -0.5375 0 -0.0243903 -0.5125 0 -0.0243903 -0.5375 0 
-0.0487805 -0.5375 0 0.0487805 -0.5125 0 0.0487805 -0.5375 0 
0.0243902 -0.5375 0 0.0243902 -0.5125 0 0.0731707 -0.5375 0 
0.097561 -0.5375 0 0.0731707 -0.5125 0 0.097561 -0.5125 0 
0.121951 -0.5125 0 0.121951 -0.5375 0 0.146341 -0.5125 0 
0.146341 -0.5375 0 0.170732 -0.5125 0 0.170732 -0.5375 0 
0.195122 -0.5375 0 0.195122 -0.5125 0 0.243902 -0.5375 0 
0.243902 -0.5125 0 0.219512 -0.5125 0 0.219512 -0.5375 0 
0.292683 -0.5125 0 0.268293 -0.5375 0 0.268293 -0.5125 0 
0.292683 -0.5375 0 0.317073 -0.5375 0 0.317073 -0.5125 0 
0.341463 -0.5375 0 0.341463 -0.5125 0 0.390244 -0.5125 0 
0.390244 -0.5375 0 0.365854 -0.5125 0 0.365854 -0.5375 0 
0.414634 -0.5375 0 0.414634 -0.5125 0 0.439024 -0.5125 0 
0.439024 -0.5375 0 0.463415 -0.5375 0 0.463415 -0.5125 0 
0.487805 -0.5375 0 0.487805 -0.5125 0 0.5125 -0.538043 0 
0.5125 -0.51413 0 0.5375 -0.538043 0 0.5375 -0.51413 0 
-0.5375 -0.490217 0 -0.5375 -0.466304 0 -0.5125 -0.490217 0 
-0.5125 -0.466304 0 -0.487805 -0.487805 0 -0.463415 -0.487805 0 
-0.463415 -0.463415 0 -0.487805 -0.463415 0 -0.439024 -0.487805 0 
-0.414634 -0.487805 0 -0.439024 -0.463415 0 -0.414634 -0.463415 0 
-0.365854 -0.487805 0 -0.390244 -0.463415 0 -0.365854 -0.463415 0 
-0.390244 -0.487805 0 -0.341463 -0.487805 0 -0.317073 -0.463415 0 
-0.341463 -0.463415 0 -0.317073 -0.487805 0 -0.292683 -0.487805 0 
-0.292683 -0.463415 0 -0.268293 -0.487805 0 -0.268293 -0.463415 0 
-0.219512 -0.463415 0 -0.243902 -0.487805 0 -0.219512 -0.487805 0 
-0.243902 -0.463415 0 -0.195122 -0.487805 0 -0.170732 -0.487805 0 
-0.195122 -0.463415 0 -0.170732 -0.463415 0 -0.146341 -0.487805 0 
-0.121951 -0.487805 0 -0.146341 -0.463415 0 -0.121951 -0.463415 0 
-0.0731707 -0.463415 0 -0.0731707 -0.487805 0 -0.097561 -0.463415 0 
-0.097561 -0.487805 0 -0.0487805 -0.487805 0 -0.0243903 -0.487805 0 
-1.86265e-08 -0.487805 0 -1.86265e-08 -0.463415 0 -0.0243903 -0.463415 0 
-0.0487805 -0.463415 0 0.0487805 -0.487805 0 0.0243902 -0.487805 0 
0.0487805 -0.463415 0 0.0243902 -0.463415 0 0.097561 -0.487805 0 
0.0731707 -0.463415 0 0.097561 -0.463415 0 0.0731707 -0.487805 0 
0.121951 -0.463415 0 0.146341 -0.487805 0 0.121951 -0.487805 0 
0.146341 -0.463415 0 0.195122 -0.463415 0 0.170732 -0.463415 0 
0.170732 -0.487805 0 0.195122 -0.487805 0 0.243902 -0.463415 0 
0.243902 -0.487805 0 0.219512 -0.487805 0 0.219512 -0.463415 0 
0.268293 -0.487805 0 0.292683 -0.463415 0 0.268293 -0.463415 0 
0.292683 -0.487805 0 0.317073 -0.463415 0 0.341463 -0.487805 0 
0.317073 -0.487805 0 0.341463 -0.463415 0 0.390244 -0.487805 0 
0.365854 -0.463415 0 0.390244 -0.463415 0 0.365854 -0.487805 0 
0.439024 -0.463415 0 0.439024 -0.487805 0 0.414634 -0.463415 0 
0.414634 -0.487805 0 0.463415 -0.487805 0 0.487805 -0.463415 0 
0.463415 -0.463415 0 0.487805 -0.487805 0 0.5375 -0.490217 0 
0.5375 -0.466304 0 0.5125 -0.490217 0 0.5125 -0.466304 0 
-0.5375 -0.418478 0 -0.5375 -0.442391 0 -0.5125 -0.442391 0 
-0.5125 -0.418478 0 -0.487805 -0.414634 0 -0.463415 -0.439024 0 
-0.487805 -0.439024 0 -0.463415 -0.414634 0 -0.439024 -0.439024 0 
-0.439024 -0.414634 0 -0.414634 -0.439024 0 -0.414634 -0.414634 0 
-0.390244 -0.439024 0 -0.365854 -0.439024 0 -0.365854 -0.414634 0 
-0.390244 -0.414634 0 -0.317073 -0.414634 0 -0.341463 -0.439024 0 
-0.317073 -0.439024 0 -0.341463 -0.414634 0 -0.292683 -0.439024 0 
-0.292683 -0.414634 0 -0.268293 -0.414634 0 -0.268293 -0.439024 0 
-0.243902 -0.414634 0 -0.219512 -0.439024 0 -0.243902 -0.439024 0 
-0.219512 -0.414634 0 -0.170732 -0.414634 0 -0.195122 -0.414634 0 
-0.195122 -0.439024 0 -0.170732 -0.439024 0 -0.121951 -0.414634 0 
-0.121951 -0.439024 0 -0.146341 -0.439024 0 -0.146341 -0.414634 0 
-0.0731707 -0.414634 0 -0.097561 -0.414634 0 -0.097561 -0.439024 0 
-0.0731707 -0.439024 0 -0.0487805 -0.439024 0 -0.0487805 -0.414634 0 
-1.86265e-08 -0.439024 0 -1.86265e-08 -0.414634 0 -0.0243903 -0.414634 0 
-0.0243903 -0.439024 0 0.0243902 -0.414634 0 0.0487805 -0.414634 0 
0.0487805 -0.439024 0 0.0243902 -0.439024 0 0.0731707 -0.439024 0 
0.097561 -0.439024 0 0.0731707 -0.414634 0 0.097561 -0.414634 0 
0.146341 -0.439024 0 0.121951 -0.439024 0 0.121951 -0.414634 0 
0.146341 -0.414634 0 0.170732 -0.414634 0 0.195122 -0.439024 0 
0.195122 -0.414634 0 0.170732 -0.439024 0 0.243902 -0.439024 0 
0.219512 -0.439024 0 0.219512 -0.414634 0 0.243902 -0.414634 0 
0.292683 -0.439024 0 0.292683 -0.414634 0 0.268293 -0.414634 0 
0.268293 -0.439024 0 0.341463 -0.439024 0 0.317073 -0.439024 0 
0.341463 -0.414634 0 0.317073 -0.414634 0 0.365854 -0.439024 0 
0.390244 -0.439024 0 0.390244 -0.414634 0 0.365854 -0.414634 0 
0.439024 -0.439024 0 0.414634 -0.414634 0 0.414634 -0.439024 0 
0.439024 -0.414634 0 0.463415 -0.414634 0 0.487805 -0.414634 0 
0.487805 -0.439024 0 0.463415 -0.439024 0 0.5375 -0.418478 0 
0.5375 -0.442391 0 0.5125 -0.442391 0 0.5125 -0.418478 0 
-0.5125 -0.394565 0 -0.5375 -0.394565 0 -0.5375 -0.370652 0 
-0.5125 -0.370652 0 -0.487805 -0.365854 0 -0.463415 -0.365854 0 
-0.463415 -0.390244 0 -0.487805 -0.390244 0 -0.414634 -0.390244 0 
-0.439024 -0.390244 0 -0.414634 -0.365854 0 -0.439024 -0.365854 0 
-0.390244 -0.390244 0 -0.365854 -0.390244 0 -0.390244 -0.365854 0 
-0.365854 -0.365854 0 -0.341463 -0.365854 0 -0.341463 -0.390244 0 
-0.317073 -0.365854 0 -0.317073 -0.390244 0 -0.268293 -0.390244 0 
-0.268293 -0.365854 0 -0.292683 -0.390244 0 -0.292683 -0.365854 0 
-0.219512 -0.365854 0 -0.219512 -0.390244 0 -0.243902 -0.390244 0 
-0.243902 -0.365854 0 -0.195122 -0.365854 0 -0.170732 -0.365854 0 
-0.170732 -0.390244 0 -0.195122 -0.390244 0 -0.146341 -0.365854 0 
-0.121951 -0.365854 0 -0.121951 -0.390244 0 -0.146341 -0.390244 0 
-0.0731707 -0.390244 0 -0.097561 -0.390244 0 -0.097561 -0.365854 0 
-0.0731707 -0.365854 0 -1.86265e-08 -0.390244 0 -0.0487805 -0.390244 0 
-0.0487805 -0.365854 0 -1.86265e-08 -0.365854 0 -0.0243903 -0.365854 0 
-0.0243903 -0.390244 0 0.0243902 -0.390244 0 0.0487805 -0.365854 0 
0.0487805 -0.390244 0 0.0243902 -0.365854 0 0.0731707 -0.390244 0 
0.097561 -0.390244 0 0.0731707 -0.365854 0 0.097561 -0.365854 0 
0.121951 -0.390244 0 0.121951 -0.365854 0 0.146341 -0.390244 0 
0.146341 -0.365854 0 0.170732 -0.365854 0 0.195122 -0.365854 0 
0.195122 -0.390244 0 0.170732 -0.390244 0 0.243902 -0.365854 0 
0.219512 -0.390244 0 0.243902 -0.390244 0 0.219512 -0.365854 0 
0.292683 -0.365854 0 0.292683 -0.390244 0 0.268293 -0.365854 0 
0.268293 -0.390244 0 0.317073 -0.365854 0 0.341463 -0.390244 0 
0.341463 -0.365854 0 0.317073 -0.390244 0 0.390244 -0.365854 0 
0.390244 -0.390244 0 0.365854 -0.390244 0 0.365854 -0.365854 0 
0.414634 -0.365854 0 0.414634 -0.390244 0 0.439024 -0.390244 0 
0.439024 -0.365854 0 0.487805 -0.365854 0 0.487805 -0.390244 0 
0.463415 -0.390244 0 0.463415 -0.365854 0 0.5125 -0.394565 0 
0.5375 -0.370652 0 0.5375 -0.394565 0 0.5125 -0.370652 0 
-0.5375 -0.346739 0 -0.5375 -0.322826 0 -0.5125 -0.322826 0 
-0.5125 -0.346739 0 -0.463415 -0.341463 0 -0.487805 -0.317073 0 
-0.463415 -0.317073 0 -0.487805 -0.341463 0 -0.439024 -0.341463 0 
-0.439024 -0.317073 0 -0.414634 -0.341463 0 -0.414634 -0.317073 0 
-0.390244 -0.341463 0 -0.365854 -0.317073 0 -0.390244 -0.317073 0 
-0.365854 -0.341463 0 -0.341463 -0.341463 0 -0.317073 -0.317073 0 
-0.341463 -0.317073 0 -0.317073 -0.341463 0 -0.268293 -0.317073 0 
-0.292683 -0.341463 0 -0.268293 -0.341463 0 -0.292683 -0.317073 0 
-0.243902 -0.317073 0 -0.219512 -0.317073 0 -0.219512 -0.341463 0 
-0.243902 -0.341463 0 -0.195122 -0.317073 0 -0.170732 -0.317073 0 
-0.195122 -0.341463 0 -0.170732 -0.341463 0 -0.121951 -0.341463 0 
-0.146341 -0.341463 0 -0.121951 -0.317073 0 -0.146341 -0.317073 0 
-0.097561 -0.341463 0 -0.097561 -0.317073 0 -0.0731707 -0.317073 0 
-0.0731707 -0.341463 0 -1.86265e-08 -0.317073 0 -1.86265e-08 -0.341463 0 
-0.0243903 -0.317073 0 -0.0243903 -0.341463 0 -0.0487805 -0.341463 0 
-0.0487805 -0.317073 0 0.0243902 -0.317073 0 0.0243902 -0.341463 0 
0.0487805 -0.341463 0 0.0487805 -0.317073 0 0.097561 -0.317073 0 
0.097561 -0.341463 0 0.0731707 -0.341463 0 0.0731707 -0.317073 0 
0.146341 -0.341463 0 0.121951 -0.341463 0 0.121951 -0.317073 0 
0.146341 -0.317073 0 0.170732 -0.317073 0 0.170732 -0.341463 0 
0.195122 -0.317073 0 0.195122 -0.341463 0 0.243902 -0.317073 0 
0.219512 -0.341463 0 0.243902 -0.341463 0 0.219512 -0.317073 0 
0.268293 -0.341463 0 0.292683 -0.341463 0 0.268293 -0.317073 0 
0.292683 -0.317073 0 0.341463 -0.341463 0 0.317073 -0.341463 0 
0.341463 -0.317073 0 0.317073 -0.317073 0 0.365854 -0.341463 0 
0.390244 -0.341463 0 0.365854 -0.317073 0 0.390244 -0.317073 0 
0.439024 -0.341463 0 0.414634 -0.317073 0 0.414634 -0.341463 0 
0.439024 -0.317073 0 0.487805 -0.341463 0 0.487805 -0.317073 0 
[...]
POINT_DATA 2029
SCALARS id float
LOOKUP_TABLE default
1728 1681 1682 1727 1774 1775 1776 1773 1780 
1778 1779 1777 1782 1784 1783 1781 1785 1788 
1787 1786 1789 1791 1792 1790 1793 1796 1795 
1794 1798 1800 1799 1797 1803 1804 1802 1801 
1808 1807 1805 1806 1810 1814 1813 1812 1811 
1809 1818 1817 1815 1816 1819 1821 1820 1822 
1824 1823 1826 1825 1828 1827 1829 1830 1833 
1834 1832 1831 1838 1835 1836 1837 1839 1840 
1841 1842 1846 1845 1844 1843 1847 1848 1850 
1849 1851 1852 1853 1854 1855 1856 1901 1902 
1683 1684 1729 1730 0 41 42 1 82 
123 83 124 205 165 206 164 246 288 
247 287 328 329 369 370 452 410 451 
411 492 533 493 534 574 615 575 616 
698 697 657 656 738 779 820 821 780 
739 902 861 903 862 984 944 985 943 
1026 1066 1025 1067 1149 1108 1107 1148 1231 
1230 1189 1190 1271 1313 1272 1312 1354 1394 
1353 1395 1476 1436 1477 1435 1559 1558 1518 
1517 1599 1641 1600 1640 1903 1904 1857 1858 
1686 1685 1731 1732 3 43 2 44 84 
85 125 126 166 207 208 167 290 248 
289 249 330 331 372 371 413 453 412 
454 536 495 494 535 618 617 576 577 
700 659 658 699 740 741 822 823 782 
781 864 905 904 863 945 986 946 987 
1068 1027 1028 1069 1110 1150 1151 1109 1232 
1191 1192 1233 1314 1315 1274 1273 1396 1355 
1397 1356 1437 1478 1479 1438 1560 1520 1519 
1561 1602 1643 1642 1601 1906 1905 1859 1860 
1733 1687 1688 1734 5 46 45 4 127 
86 128 87 168 209 169 210 251 250 
292 291 373 374 332 333 456 455 414 
415 497 538 537 496 579 620 619 578 
701 660 661 702 824 742 743 825 784 
783 865 907 906 866 947 988 948 989 
1029 1030 1070 1071 1112 1153 1152 1111 1235 
1193 1234 1194 1317 1316 1276 1275 1358 1398 
1399 1357 1481 1480 1439 1440 1522 1521 1562 
1563 1645 1644 1603 1604 1861 1908 1907 1862 
1689 1690 1736 1735 47 7 48 6 88 
89 129 130 170 212 171 211 252 294 
253 293 376 334 375 335 417 458 457 
416 499 540 498 539 621 580 622 581 
662 663 704 703 827 826 786 785 744 
745 868 867 908 909 991 990 949 950 
1072 1031 1032 1073 1114 1113 1155 1154 1237 
1195 1236 1196 1277 1318 1278 1319 1400 1359 
1401 1360 1441 1482 1442 1483 1564 1524 1523 
1565 1646 1647 1606 1605 1864 1863 1909 1910 
1691 1692 1739 1693 1738 1737 50 8 9 
49 131 90 132 91 213 173 214 172 
296 295 255 254 378 377 336 337 459 
460 419 418 501 541 500 542 623 583 
582 624 664 705 665 706 787 829 746 
747 788 828 869 911 870 910 951 992 
993 952 1034 1033 1075 1074 1157 1156 1116 
1115 1198 1239 1238 1197 1320 1321 1280 1279 
1361 1403 1402 1362 1443 1444 1485 1484 1525 
1526 1566 1567 1649 1608 1607 1648 1913 1867 
1911 1912 1866 1865 1740 1694 1695 1741 51 
11 10 52 134 92 133 93 215 175 
174 216 256 297 257 298 379 380 338 
339 420 421 462 461 544 503 502 543 
626 625 585 584 707 666 667 708 831 
789 748 790 830 749 912 872 913 871 
953 994 954 995 1036 1035 1076 1077 1118 
1159 1117 1158 1199 1241 1200 1240 1323 1322 
1282 1281 1364 1404 1363 1405 1445 1487 1486 
1446 1528 1527 1568 1569 1609 1651 1610 1650 
1869 1914 1868 1915 1696 1743 1697 1742 13 
12 54 53 135 95 94 136 177 218 
217 176 258 259 300 299 381 340 382 
341 423 422 464 463 505 546 545 504 
587 628 586 627 710 669 709 668 751 
832 750 833 792 791 914 915 874 873 
955 996 956 997 1037 1038 1079 1078 1120 
1119 1161 1160 1201 1243 1202 1242 1283 1284 
1325 1324 1365 1406 1407 1366 1489 1447 1448 
1488 1571 1529 1570 1530 1652 1612 1653 1611 
1871 1917 1870 1916 1698 1699 1745 1744 14 
15 55 56 96 137 97 138 178 179 
219 220 301 302 260 261 383 342 343 
384 425 466 465 424 507 547 506 548 
629 630 588 589 670 671 711 712 753 
834 835 793 794 752 917 916 876 875 
958 998 999 957 1081 1039 1080 1040 1162 
1121 1163 1122 1245 1244 1204 1203 1286 1285 
1327 1326 1368 1408 1367 1409 1490 1491 1450 
1449 1531 1573 1572 1532 1613 1655 1654 1614 
1919 1873 1872 1918 1700 1701 1746 1747 17 
16 57 58 139 98 140 99 221 180 
222 181 303 263 304 262 385 345 386 
344 467 427 468 426 549 550 508 509 
631 632 591 590 673 672 714 713 755 
837 836 754 795 796 919 918 878 877 
1001 960 959 1000 1042 1083 1041 1082 1123 
1165 1164 1124 1206 1205 1247 1246 1288 1287 
1329 1328 1411 1370 1410 1369 1492 1493 1452 
1451 1574 1534 1575 1533 1657 1616 1656 1615 
1921 1875 1920 1874 1749 1748 1702 1703 19 
60 61 59 20 18 101 100 141 142 
143 102 184 183 225 223 224 182 305 
266 306 307 264 265 348 387 388 389 
347 346 470 428 430 429 469 471 552 
512 553 510 551 511 594 633 593 634 
635 592 676 715 675 717 716 674 758 
840 799 797 838 798 756 839 757 922 
921 920 881 880 879 962 1002 963 1003 
1004 961 1086 1044 1045 1085 1084 1043 1127 
1125 1168 1166 1167 1126 1248 1207 1208 1209 
1250 1249 1332 1291 1290 1289 1331 1330 1412 
1414 1413 1373 1372 1371 1496 1453 1454 1455 
1494 1495 1535 1537 1536 1576 1577 1578 1659 
1618 1619 1660 1658 1617 1877 1923 1876 1922 
1750 1751 1704 1705 21 63 22 62 104 
103 145 144 226 185 186 227 308 309 
267 268 349 390 391 350 432 431 473 
472 514 555 554 513 596 595 637 636 
677 719 718 678 760 841 842 759 801 
800 923 882 883 924 964 1005 1006 965 
1047 1088 1087 1046 1169 1170 1128 1129 1210 
1211 1251 1252 1334 1293 1292 1333 1416 1415 
1375 1374 1498 1457 1456 1497 1579 1539 1538 
1580 1620 1661 1662 1621 1925 1879 1924 1878 
1753 1707 1752 1706 64 24 23 65 105 
147 146 106 188 187 228 229 311 270 
269 310 393 392 352 351 474 475 434 
433 556 516 515 557 597 639 638 598 
721 680 679 720 843 803 844 762 761 
802 926 925 885 884 967 966 1008 1007 
1090 1089 1049 1048 1172 1131 1171 1130 1213 
1212 1253 1254 1294 1336 1335 1295 1418 1417 
1377 1376 1459 1458 1500 1499 1581 1582 1541 
1540 1664 1622 1663 1623 1927 1881 1926 1880 
1755 1709 1754 1708 67 25 66 26 108 
149 107 148 190 189 231 230 272 312 
271 313 394 353 354 395 477 435 436 
476 558 517 559 518 641 599 600 640 
723 722 681 682 805 764 804 763 845 
846 886 887 927 928 968 969 1010 1009 
1092 1091 1050 1051 1173 1132 1133 1174 1256 
1255 1214 1215 1297 1338 1337 1296 1419 1420 
1379 1378 1460 1501 1461 1502 1583 1543 1542 
1584 1625 1624 1665 1666 1928 1882 1883 1929 
1710 1711 1757 1756 28 68 69 27 109 
110 150 151 232 192 191 233 315 274 
314 273 355 356 397 396 478 479 437 
438 561 520 519 560 643 601 642 602 
684 724 725 683 847 765 807 766 848 
806 888 929 930 889 1011 1012 971 970 
1052 1053 1093 1094 1135 1175 1176 1134 1258 
1216 1217 1257 1299 1339 1298 1340 1422 1381 
1421 1380 1462 1463 1503 1504 1545 1586 1544 
1585 1667 1668 1627 1626 1884 1885 1930 1931 
1713 1712 1759 1758 30 29 71 70 152 
112 153 111 235 194 234 193 317 316 
275 276 398 358 357 399 439 481 480 
440 562 563 522 521 645 644 604 603 
685 686 727 726 850 768 849 767 809 
808 891 931 932 890 1013 972 973 1014 
1095 1096 1055 1054 1177 1178 1137 1136 1260 
1259 1218 1219 1341 1342 1300 1301 1424 1423 
1382 1383 1465 1464 1505 1506 1587 1547 1588 
1546 1670 1628 1669 1629 1887 1932 1933 1886 
1760 1761 1762 1714 1715 1716 32 31 73 
72 155 113 114 154 195 196 237 236 
277 318 278 319 400 360 359 401 483 
482 442 441 565 564 523 524 647 646 
605 606 728 687 688 729 810 769 852 
811 770 851 934 933 893 892 1016 975 
974 1015 1097 1098 1056 1057 1139 1138 1180 
1179 1221 1261 1220 1262 1343 1302 1303 1344 
1426 1385 1384 1425 1507 1508 1466 1467 1589 
1549 1548 1590 1671 1672 1631 1630 1934 1889 
1936 1890 1935 1888 1764 1717 1763 1718 33 
34 75 74 156 115 116 157 238 197 
198 239 321 280 279 320 362 402 403 
361 485 444 484 443 566 567 526 525 
649 648 607 608 730 690 689 731 812 
853 854 772 771 813 894 936 895 935 
1017 976 1018 977 1099 1100 1059 1058 1181 
1141 1140 1182 1264 1222 1263 1223 1346 1345 
1304 1305 1427 1387 1386 1428 1510 1509 1468 
1469 1551 1591 1550 1592 1673 1633 1632 1674 
1891 1892 1938 1937 1765 1719 1720 1766 76 
35 36 77 117 118 158 159 200 240 
199 241 281 282 323 322 364 405 404 
363 487 486 446 445 527 569 528 568 
651 609 610 650 732 692 733 691 855 
856 774 773 815 814 896 938 937 897 
979 1019 978 1020 1102 1061 1101 1060 1184 
1183 1142 1143 1225 1266 1224 1265 1306 1348 
1307 1347 1429 1430 1389 1388 1512 1470 1471 
1511 1552 1594 1593 1553 1676 1635 1675 1634 
1894 1939 1940 1893 1767 1722 1721 1768 78 
38 37 79 160 120 119 161 202 201 
242 243 284 283 325 324 406 407 365 
366 448 489 447 488 571 529 570 530 
652 612 653 611 735 734 694 693 776 
817 775 816 857 858 940 939 899 898 
1021 980 1022 981 1062 1103 1063 1104 1185 
1145 1186 1144 1226 1267 1268 1227 1350 1309 
1349 1308 1390 1391 1431 1432 1473 1514 1513 
1472 1595 1596 1554 1555 1678 1637 1636 1677 
1941 1896 1895 1942 1723 1769 1770 1724 40 
80 39 81 163 122 162 121 203 244 
204 245 286 326 285 327 409 408 368 
367 450 449 491 490 532 572 531 573 
613 654 614 655 736 737 695 696 860 
819 818 778 777 859 942 901 941 900 
1023 982 1024 983 1105 1106 1064 1065 1188 
1146 1147 1187 1270 1228 1269 1229 1311 1352 
1310 1351 1433 1392 1393 1434 1515 1516 1475 
1474 1598 1556 1597 1557 1638 1680 1639 1679 
1943 1897 1898 1944 1771 1772 1725 1726 1947 
1950 1949 1948 1951 1953 1954 1952 1958 1955 
1957 1956 1961 1960 1959 1962 1966 1963 1965 
1964 1968 1969 1967 1970 1974 1973 1972 1971 
1978 1975 1977 1976 1982 1980 1981 1979 1988 
1984 1987 1986 1983 1985 1989 1992 1991 1990 
1994 1993 1995 1996 1999 1998 2000 1997 2001 
2004 2003 2002 2006 2008 2007 2005 2012 2009 
2011 2010 2013 2015 2016 2014 2020 2017 2019 
2018 2021 2024 2022 2023 2028 2025 2027 2026 
1946 1900 1945 1899 
FIELD FieldData 4
r 3 2029 float
-0.5125 -0.51413 0 -0.5375 -0.538043 0 -0.5375 -0.51413 0 
-0.5125 -0.538043 0 -0.487805 -0.5125 0 -0.463415 -0.5375 0 
-0.463415 -0.5125 0 -0.487805 -0.5375 0 -0.414634 -0.5125 0 
-0.439024 -0.5125 0 -0.414634 -0.5375 0 -0.439024 -0.5375 0 
-0.390244 -0.5125 0 -0.365854 -0.5125 0 -0.365854 -0.5375 0 
-0.390244 -0.5375 0 -0.341463 -0.5375 0 -0.317073 -0.5125 0 
-0.317073 -0.5375 0 -0.341463 -0.5125 0 -0.292683 -0.5375 0 
-0.268293 -0.5375 0 -0.268293 -0.5125 0 -0.292683 -0.5125 0 
-0.243902 -0.5375 0 -0.219512 -0.5125 0 -0.219512 -0.5375 0 
-0.243902 -0.5125 0 -0.195122 -0.5125 0 -0.170732 -0.5125 0 
-0.170732 -0.5375 0 -0.195122 -0.5375 0 -0.121951 -0.5375 0 
-0.121951 -0.5125 0 -0.146341 -0.5125 0 -0.146341 -0.5375 0 
-0.0731707 -0.5125 0 -0.0731707 -0.5375 0 -0.097561 -0.5375 0 
-0.097561 -0.5125 0 -0.0487805 -0.5125 0 -1.86265e-08 -0.5125 0 
-1.86265e-08 -0.5375 0 -0.0243903 -0.5125 0 -0.0243903 -0.5375 0 
-0.0487805 -0.5375 0 0.0487805 -0.5125 0 0.0487805 -0.5375 0 
0.0243902 -0.5375 0 0.0243902 -0.5125 0 0.0731707 -0.5375 0 
0.097561 -0.5375 0 0.0731707 -0.5125 0 0.097561 -0.5125 0 
0.121951 -0.5125 0 0.121951 -0.5375 0 0.146341 -0.5125 0 
0.146341 -0.5375 0 0.170732 -0.5125 0 0.170732 -0.5375 0 
0.195122 -0.5375 0 0.195122 -0.5125 0 0.243902 -0.5375 0 
0.243902 -0.5125 0 0.219512 -0.5125 0 0.219512 -0.5375 0 
0.292683 -0.5125 0 0.268293 -0.5375 0 0.268293 -0.5125 0 
0.292683 -0.5375 0 0.317073 -0.5375 0 0.317073 -0.5125 0 
0.341463 -0.5375 0 0.341463 -0.5125 0 0.390244 -0.5125 0 
0.390244 -0.5375 0 0.365854 -0.5125 0 0.365854 -0.5375 0 
0.414634 -0.5375 0 0.414634 -0.5125 0 0.439024 -0.5125 0 
0.439024 -0.5375 0 0.463415 -0.5375 0 0.463415 -0.5125 0 
0.487805 -0.5375 0 0.487805 -0.5125 0 0.5125 -0.538043 0 
0.5125 -0.51413 0 0.5375 -0.538043 0 0.5375 -0.51413 0 
-0.5375 -0.490217 0 -0.5375 -0.466304 0 -0.5125 -0.490217 0 
-0.5125 -0.466304 0 -0.487805 -0.487805 0 -0.463415 -0.487805 0 
-0.463415 -0.463415 0 -0.487805 -0.463415 0 -0.439024 -0.487805 0 
-0.414634 -0.487805 0 -0.439024 -0.463415 0 -0.414634 -0.463415 0 
-0.365854 -0.487805 0 -0.390244 -0.463415 0 -0.365854 -0.463415 0 
-0.390244 -0.487805 0 -0.341463 -0.487805 0 -0.317073 -0.463415 0 
-0.341463 -0.463415 0 -0.317073 -0.487805 0 -0.292683 -0.487805 0 
-0.292683 -0.463415 0 -0.268293 -0.487805 0 -0.268293 -0.463415 0 
-0.219512 -0.463415 0 -0.243902 -0.487805 0 -0.219512 -0.487805 0 
-0.243902 -0.463415 0 -0.195122 -0.487805 0 -0.170732 -0.487805 0 
-0.195122 -0.463415 0 -0.170732 -0.463415 0 -0.146341 -0.487805 0 
-0.121951 -0.487805 0 -0.146341 -0.463415 0 -0.121951 -0.463415 0 
-0.0731707 -0.463415 0 -0.0731707 -0.487805 0 -0.097561 -0.463415 0 
-0.097561 -0.487805 0 -0.0487805 -0.487805 0 -0.0243903 -0.487805 0 
-1.86265e-08 -0.487805 0 -1.86265e-08 -0.463415 0 -0.0243903 -0.463415 0 
-0.0487805 -0.463415 0 0.0487805 -0.487805 0 0.0243902 -0.487805 0 
0.0487805 -0.463415 0 0.0243902 -0.463415 0 0.097561 -0.487805 0 
0.0731707 -0.463415 0 0.097561 -0.463415 0 0.0731707 -0.487805 0 
0.121951 -0.463415 0 0.146341 -0.487805 0 0.121951 -0.487805 0 
0.146341 -0.463415 0 0.195122 -0.463415 0 0.170732 -0.463415 0 
0.170732 -0.487805 0 0.195122 -0.487805 0 0.243902 -0.463415 0 
0.243902 -0.487805 0 0.219512 -0.487805 0 0.219512 -0.463415 0 
0.268293 -0.487805 0 0.292683 -0.463415 0 0.268293 -0.463415 0 
0.292683 -0.487805 0 0.317073 -0.463415 0 0.341463 -0.487805 0 
0.317073 -0.487805 0 0.341463 -0.463415 0 0.390244 -0.487805 0 
0.365854 -0.463415 0 0.390244 -0.463415 0 0.365854 -0.487805 0 
0.439024 -0.463415 0 0.439024 -0.487805 0 0.414634 -0.463415 0 
0.414634 -0.487805 0 0.463415 -0.487805 0 0.487805 -0.463415 0 
0.463415 -0.463415 0 0.487805 -0.487805 0 0.5375 -0.490217 0 
0.5375 -0.466304 0 0.5125 -0.490217 0 0.5125 -0.466304 0 
-0.5375 -0.418478 0 -0.5375 -0.442391 0 -0.5125 -0.442391 0 
-0.5125 -0.418478 0 -0.487805 -0.414634 0 -0.463415 -0.439024 0 
-0.487805 -0.439024 0 -0.463415 -0.414634 0 -0.439024 -0.439024 0 
-0.439024 -0.414634 0 -0.414634 -0.439024 0 -0.414634 -0.414634 0 
-0.390244 -0.439024 0 -0.365854 -0.439024 0 -0.365854 -0.414634 0 
-0.390244 -0.414634 0 -0.317073 -0.414634 0 -0.341463 -0.439024 0 
-0.317073 -0.439024 0 -0.341463 -0.414634 0 -0.292683 -0.439024 0 
-0.292683 -0.414634 0 -0.268293 -0.414634 0 -0.268293 -0.439024 0 
-0.243902 -0.414634 0 -0.219512 -0.439024 0 -0.243902 -0.439024 0 
-0.219512 -0.414634 0 -0.170732 -0.414634 0 -0.195122 -0.414634 0 
-0.195122 -0.439024 0 -0.170732 -0.439024 0 -0.121951 -0.414634 0 
-0.121951 -0.439024 0 -0.146341 -0.439024 0 -0.146341 -0.414634 0 
-0.0731707 -0.414634 0 -0.097561 -0.414634 0 -0.097561 -0.439024 0 
-0.0731707 -0.439024 0 -0.0487805 -0.439024 0 -0.0487805 -0.414634 0 
-1.86265e-08 -0.439024 0 -1.86265e-08 -0.414634 0 -0.0243903 -0.414634 0 
-0.0243903 -0.439024 0 0.0243902 -0.414634 0 0.0487805 -0.414634 0 
0.0487805 -0.439024 0 0.0243902 -0.439024 0 0.0731707 -0.439024 0 
0.097561 -0.439024 0 0.0731707 -0.414634 0 0.097561 -0.414634 0 
0.146341 -0.439024 0 0.121951 -0.439024 0 0.121951 -0.414634 0 
0.146341 -0.414634 0 0.170732 -0.414634 0 0.195122 -0.439024 0 
0.195122 -0.414634 0 0.170732 -0.439024 0 0.243902 -0.439024 0 
0.219512 -0.439024 0 0.219512 -0.414634 0 0.243902 -0.414634 0 
0.292683 -0.439024 0 0.292683 -0.414634 0 0.268293 -0.414634 0 
0.268293 -0.439024 0 0.341463 -0.439024 0 0.317073 -0.439024 0 
0.341463 -0.414634 0 0.317073 -0.414634 0 0.365854 -0.439024 0 
0.390244 -0.439024 0 0.390244 -0.414634 0 0.365854 -0.414634 0 
0.439024 -0.439024 0 0.414634 -0.414634 0 0.414634 -0.439024 0 
0.439024 -0.414634 0 0.463415 -0.414634 0 0.487805 -0.414634 0 
0.487805 -0.439024 0 0.463415 -0.439024 0 0.5375 -0.418478 0 
0.5375 -0.442391 0 0.5125 -0.442391 0 0.5125 -0.418478 0 
-0.5125 -0.394565 0 -0.5375 -0.394565 0 -0.5375 -0.370652 0 
-0.5125 -0.370652 0 -0.487805 -0.365854 0 -0.463415 -0.365854 0 
-0.463415 -0.390244 0 -0.487805 -0.390244 0 -0.414634 -0.390244 0 
-0.439024 -0.390244 0 -0.414634 -0.365854 0 -0.439024 -0.365854 0 
-0.390244 -0.390244 0 -0.365854 -0.390244 0 -0.390244 -0.365854 0 
-0.365854 -0.365854 0 -0.341463 -0.365854 0 -0.341463 -0.390244 0 
-0.317073 -0.365854 0 -0.317073 -0.390244 0 -0.268293 -0.390244 0 
-0.268293 -0.365854 0 -0.292683 -0.390244 0 -0.292683 -0.365854 0 
-0.219512 -0.365854 0 -0.219512 -0.390244 0 -0.243902 -0.390244 0 
-0.243902 -0.365854 0 -0.195122 -0.365854 0 -0.170732 -0.365854 0 
-0.170732 -0.390244 0 -0.195122 -0.390244 0 -0.146341 -0.365854 0 
-0.121951 -0.365854 0 -0.121951 -0.390244 0 -0.146341 -0.390244 0 
-0.0731707 -0.390244 0 -0.097561 -0.390244 0 -0.097561 -0.365854 0 
-0.0731707 -0.365854 0 -1.86265e-08 -0.390244 0 -0.0487805 -0.390244 0 
-0.0487805 -0.365854 0 -1.86265e-08 -0.365854 0 -0.0243903 -0.365854 0 
-0.0243903 -0.390244 0 0.0243902 -0.390244 0 0.0487805 -0.365854 0 
0.0487805 -0.390244 0 0.0243902 -0.365854 0 0.0731707 -0.390244 0 
0.097561 -0.390244 0 0.0731707 -0.365854 0 0.097561 -0.365854 0 
0.121951 -0.390244 0 0.121951 -0.365854 0 0.146341 -0.390244 0 
0.146341 -0.365854 0 0.170732 -0.365854 0 0.195122 -0.365854 0 
0.195122 -0.390244 0 0.170732 -0.390244 0 0.243902 -0.365854 0 
0.219512 -0.390244 0 0.243902 -0.390244 0 0.219512 -0.365854 0 
0.292683 -0.365854 0 0.292683 -0.390244 0 0.268293 -0.365854 0 
0.268293 -0.390244 0 0.317073 -0.365854 0 0.341463 -0.390244 0 
0.341463 -0.365854 0 0.317073 -0.390244 0 0.390244 -0.365854 0 
0.390244 -0.390244 0 0.365854 -0.390244 0 0.365854 -0.365854 0 
0.414634 -0.365854 0 0.414634 -0.390244 0 0.439024 -0.390244 0 
0.439024 -0.365854 0 0.487805 -0.365854 0 0.487805 -0.390244 0 
0.463415 -0.390244 0 0.463415 -0.365854 0 0.5125 -0.394565 0 
0.5375 -0.370652 0 0.5375 -0.394565 0 0.5125 -0.370652 0 
-0.5375 -0.346739 0 -0.5375 -0.322826 0 -0.5125 -0.322826 0 
-0.5125 -0.346739 0 -0.463415 -0.341463 0 -0.487805 -0.317073 0 
-0.463415 -0.317073 0 -0.487805 -0.341463 0 -0.439024 -0.341463 0 
-0.439024 -0.317073 0 -0.414634 -0.341463 0 -0.414634 -0.317073 0 
-0.390244 -0.341463 0 -0.365854 -0.317073 0 -0.390244 -0.317073 0 
-0.365854 -0.341463 0 -0.341463 -0.341463 0 -0.317073 -0.317073 0 
-0.341463 -0.317073 0 -0.317073 -0.341463 0 -0.268293 -0.317073 0 
-0.292683 -0.341463 0 -0.268293 -0.341463 0 -0.292683 -0.317073 0 
-0.243902 -0.317073 0 -0.219512 -0.317073 0 -0.219512 -0.341463 0 
-0.243902 -0.341463 0 -0.195122 -0.317073 0 -0.170732 -0.317073 0 
-0.195122 -0.341463 0 -0.170732 -0.341463 0 -0.121951 -0.341463 0 
-0.146341 -0.341463 0 -0.121951 -0.317073 0 -0.146341 -0.317073 0 
-0.097561 -0.341463 0 -0.097561 -0.317073 0 -0.0731707 -0.317073 0 
-0.0731707 -0.341463 0 -1.86265e-08 -0.317073 0 -1.86265e-08 -0.341463 0 
-0.0243903 -0.317073 0 -0.0243903 -0.341463 0 -0.0487805 -0.341463 0 
-0.0487805 -0.317073 0 0.0243902 -0.317073 0 0.0243902 -0.341463 0 
0.0487805 -0.341463 0 0.0487805 -0.317073 0 0.097561 -0.317073 0 
0.097561 -0.341463 0 0.0731707 -0.341463 0 0.0731707 -0.317073 0 
0.146341 -0.341463 0 0.121951 -0.341463 0 0.121951 -0.317073 0 
0.146341 -0.317073 0 0.170732 -0.317073 0 0.170732 -0.341463 0 
0.195122 -0.317073 0 0.195122 -0.341463 0 0.243902 -0.317073 0 
0.219512 -0.341463 0 0.243902 -0.341463 0 0.219512 -0.317073 0 
0.268293 -0.341463 0 0.292683 -0.341463 0 0.268293 -0.317073 0 
0.292683 -0.317073 0 0.341463 -0.341463 0 0.317073 -0.341463 0 
0.341463 -0.317073 0 0.317073 -0.317073 0 0.365854 -0.341463 0 
0.390244 -0.341463 0 0.365854 -0.317073 0 0.390244 -0.317073 0 
0.439024 -0.341463 0 0.414634 -0.317073 0 0.414634 -0.341463 0 
0.439024 -0.317073 0 0.487805 -0.341463 0 0.487805 -0.317073 0 
0.463415 -0.317073 0 0.463415 -0.341463 0 0.5125 -0.322826 0 
0.5125 -0.346739 0 0.5375 -0.346739 0 0.5375 -0.322826 0 
-0.5375 -0.298913 0 -0.5375 -0.275 0 -0.5125 -0.251087 0 
-0.5375 -0.251087 0 -0.5125 -0.275 0 -0.5125 -0.298913 0 
-0.463415 -0.268293 0 -0.487805 -0.292683 0 -0.487805 -0.268293 0 
-0.463415 -0.292683 0 -0.414634 -0.292683 0 -0.439024 -0.292683 0 
-0.414634 -0.268293 0 -0.439024 -0.268293 0 -0.365854 -0.292683 0 
-0.390244 -0.268293 0 -0.365854 -0.268293 0 -0.390244 -0.292683 0 
-0.317073 -0.268293 0 -0.317073 -0.292683 0 -0.341463 -0.268293 0 
-0.341463 -0.292683 0 -0.268293 -0.268293 0 -0.268293 -0.292683 0 
-0.292683 -0.292683 0 -0.292683 -0.268293 0 -0.219512 -0.292683 0 
-0.219512 -0.268293 0 -0.243902 -0.268293 0 -0.243902 -0.292683 0 
-0.195122 -0.268293 0 -0.170732 -0.292683 0 -0.195122 -0.292683 0 
-0.170732 -0.268293 0 -0.121951 -0.292683 0 -0.146341 -0.268293 0 
-0.146341 -0.292683 0 -0.121951 -0.268293 0 -0.097561 -0.292683 0 
-0.0731707 -0.292683 0 -0.097561 -0.268293 0 -0.0731707 -0.268293 0 