# vtk DataFile Version 4.0
vtk output
ASCII
DATASET POLYDATA
FIELD FieldData 4
domain 1 3 string
domain_min:-1000|-1000
domain_max:1000|1000
cell_size:0.05

variables 1 1 string
T:0.286

constants 1 6 string
csize:0.05
dx:0.0238095
rho0:1000
mass:0.566894
dt:0.002
a:0.1

functions 1 3 string
eq0:T=(T+dt)
eq1:Temp_dot=if((gid,0,(a*sph_L00(Temp,mass,rho0,Wp22220)))
p2:Temp=(Temp+int1((Temp_dot,dt))

POINTS 2029 float
-0.5375 -0.538043 0 -0.5375 -0.51413 0 -0.5125 -0.51413 0 
-0.5125 -0.538043 0 -0.487805 -0.5125 0 -0.463415 -0.5125 0 
-0.463415 -0.5375 0 -0.487805 -0.5375 0 -0.439024 -0.5375 0 
-0.439024 -0.5125 0 -0.414634 -0.5375 0 -0.414634 -0.5125 0 
-0.390244 -0.5375 0 -0.390244 -0.5125 0 -0.365854 -0.5375 0 
-0.365854 -0.5125 0 -0.317073 -0.5375 0 -0.341463 -0.5375 0 
-0.341463 -0.5125 0 -0.317073 -0.5125 0 -0.268293 -0.5125 0 
-0.268293 -0.5375 0 -0.292683 -0.5125 0 -0.292683 -0.5375 0 
-0.243902 -0.5375 0 -0.243902 -0.5125 0 -0.219512 -0.5125 0 
-0.219512 -0.5375 0 -0.195122 -0.5375 0 -0.170732 -0.5125 0 
-0.170732 -0.5375 0 -0.195122 -0.5125 0 -0.121951 -0.5125 0 
-0.121951 -0.5375 0 -0.146341 -0.5125 0 -0.146341 -0.5375 0 
-0.0731707 -0.5125 0 -0.0731707 -0.5375 0 -0.097561 -0.5125 0 
-0.097561 -0.5375 0 -1.86265e-08 -0.5375 0 -0.0243903 -0.5125 0 
-0.0243903 -0.5375 0 -0.0487805 -0.5125 0 -0.0487805 -0.5375 0 
-1.86265e-08 -0.5125 0 0.0487805 -0.5125 0 0.0243902 -0.5375 0 
0.0243902 -0.5125 0 0.0487805 -0.5375 0 0.0731707 -0.5375 0 
0.0731707 -0.5125 0 0.097561 -0.5375 0 0.097561 -0.5125 0 
0.146341 -0.5375 0 0.146341 -0.5125 0 0.121951 -0.5125 0 
0.121951 -0.5375 0 0.170732 -0.5375 0 0.170732 -0.5125 0 
0.195122 -0.5375 0 0.195122 -0.5125 0 0.243902 -0.5375 0 
0.243902 -0.5125 0 0.219512 -0.5125 0 0.219512 -0.5375 0 
0.268293 -0.5375 0 0.292683 -0.5125 0 0.292683 -0.5375 0 
0.268293 -0.5125 0 0.341463 -0.5125 0 0.341463 -0.5375 0 
0.317073 -0.5125 0 0.317073 -0.5375 0 0.390244 -0.5125 0 
0.390244 -0.5375 0 0.365854 -0.5125 0 0.365854 -0.5375 0 
0.439024 -0.5125 0 0.439024 -0.5375 0 0.414634 -0.5125 0 
0.414634 -0.5375 0 0.463415 -0.5125 0 0.487805 -0.5375 0 
0.487805 -0.5125 0 0.463415 -0.5375 0 0.5125 -0.538043 0 
0.5125 -0.51413 0 0.5375 -0.538043 0 0.5375 -0.51413 0 
-0.5375 -0.490217 0 -0.5125 -0.490217 0 -0.5125 -0.466304 0 
-0.5375 -0.466304 0 -0.487805 -0.487805 0 -0.487805 -0.463415 0 
-0.463415 -0.463415 0 -0.463415 -0.487805 0 -0.439024 -0.487805 0 
-0.439024 -0.463415 0 -0.414634 -0.487805 0 -0.414634 -0.463415 0 
-0.390244 -0.463415 0 -0.390244 -0.487805 0 -0.365854 -0.487805 0 
-0.365854 -0.463415 0 -0.317073 -0.463415 0 -0.341463 -0.463415 0 
-0.341463 -0.487805 0 -0.317073 -0.487805 0 -0.268293 -0.463415 0 
-0.268293 -0.487805 0 -0.292683 -0.463415 0 -0.292683 -0.487805 0 
-0.243902 -0.487805 0 -0.219512 -0.487805 0 -0.219512 -0.463415 0 
-0.243902 -0.463415 0 -0.170732 -0.463415 0 -0.170732 -0.487805 0 
-0.195122 -0.487805 0 -0.195122 -0.463415 0 -0.121951 -0.463415 0 
-0.121951 -0.487805 0 -0.146341 -0.463415 0 -0.146341 -0.487805 0 
-0.0731707 -0.487805 0 -0.097561 -0.487805 0 -0.0731707 -0.463415 0 
-0.097561 -0.463415 0 -1.86265e-08 -0.463415 0 -1.86265e-08 -0.487805 0 
-0.0487805 -0.463415 0 -0.0487805 -0.487805 0 -0.0243903 -0.463415 0 
-0.0243903 -0.487805 0 0.0243902 -0.487805 0 0.0243902 -0.463415 0 
0.0487805 -0.487805 0 0.0487805 -0.463415 0 0.097561 -0.463415 0 
0.0731707 -0.463415 0 0.097561 -0.487805 0 0.0731707 -0.487805 0 
0.121951 -0.487805 0 0.121951 -0.463415 0 0.146341 -0.487805 0 
0.146341 -0.463415 0 0.170732 -0.463415 0 0.195122 -0.463415 0 
0.195122 -0.487805 0 0.170732 -0.487805 0 0.219512 -0.487805 0 
0.219512 -0.463415 0 0.243902 -0.487805 0 0.243902 -0.463415 0 
0.268293 -0.487805 0 0.268293 -0.463415 0 0.292683 -0.463415 0 
0.292683 -0.487805 0 0.341463 -0.463415 0 0.317073 -0.487805 0 
0.317073 -0.463415 0 0.341463 -0.487805 0 0.390244 -0.463415 0 
0.365854 -0.487805 0 0.390244 -0.487805 0 0.365854 -0.463415 0 
0.439024 -0.487805 0 0.439024 -0.463415 0 0.414634 -0.487805 0 
0.414634 -0.463415 0 0.487805 -0.487805 0 0.463415 -0.463415 0 
0.463415 -0.487805 0 0.487805 -0.463415 0 0.5375 -0.466304 0 
0.5125 -0.490217 0 0.5125 -0.466304 0 0.5375 -0.490217 0 
-0.5125 -0.442391 0 -0.5125 -0.418478 0 -0.5375 -0.442391 0 
-0.5375 -0.418478 0 -0.463415 -0.414634 0 -0.487805 -0.414634 0 
-0.487805 -0.439024 0 -0.463415 -0.439024 0 -0.439024 -0.414634 0 
-0.414634 -0.439024 0 -0.414634 -0.414634 0 -0.439024 -0.439024 0 
-0.365854 -0.439024 0 -0.390244 -0.439024 0 -0.365854 -0.414634 0 
-0.390244 -0.414634 0 -0.317073 -0.439024 0 -0.341463 -0.439024 0 
-0.341463 -0.414634 0 -0.317073 -0.414634 0 -0.268293 -0.414634 0 
-0.292683 -0.439024 0 -0.292683 -0.414634 0 -0.268293 -0.439024 0 
-0.243902 -0.414634 0 -0.243902 -0.439024 0 -0.219512 -0.439024 0 
-0.219512 -0.414634 0 -0.170732 -0.439024 0 -0.170732 -0.414634 0 
-0.195122 -0.439024 0 -0.195122 -0.414634 0 -0.121951 -0.414634 0 
-0.121951 -0.439024 0 -0.146341 -0.414634 0 -0.146341 -0.439024 0 
-0.097561 -0.414634 0 -0.0731707 -0.414634 0 -0.097561 -0.439024 0 
-0.0731707 -0.439024 0 -0.0243903 -0.414634 0 -1.86265e-08 -0.414634 0 
-0.0487805 -0.414634 0 -0.0487805 -0.439024 0 -1.86265e-08 -0.439024 0 
-0.0243903 -0.439024 0 0.0243902 -0.439024 0 0.0243902 -0.414634 0 
0.0487805 -0.439024 0 0.0487805 -0.414634 0 0.0731707 -0.414634 0 
0.0731707 -0.439024 0 0.097561 -0.439024 0 0.097561 -0.414634 0 
0.146341 -0.439024 0 0.121951 -0.414634 0 0.121951 -0.439024 0 
0.146341 -0.414634 0 0.195122 -0.414634 0 0.195122 -0.439024 0 
0.170732 -0.414634 0 0.170732 -0.439024 0 0.219512 -0.414634 0 
0.243902 -0.439024 0 0.243902 -0.414634 0 0.219512 -0.439024 0 
0.268293 -0.414634 0 0.292683 -0.414634 0 0.292683 -0.439024 0 
0.268293 -0.439024 0 0.317073 -0.414634 0 0.341463 -0.414634 0 
0.317073 -0.439024 0 0.341463 -0.439024 0 0.390244 -0.414634 0 
0.365854 -0.414634 0 0.390244 -0.439024 0 0.365854 -0.439024 0 
0.439024 -0.439024 0 0.414634 -0.414634 0 0.414634 -0.439024 0 
0.439024 -0.414634 0 0.463415 -0.439024 0 0.487805 -0.414634 0 
0.487805 -0.439024 0 0.463415 -0.414634 0 0.5375 -0.418478 0 
0.5375 -0.442391 0 0.5125 -0.442391 0 0.5125 -0.418478 0 
-0.5125 -0.394565 0 -0.5125 -0.370652 0 -0.5375 -0.370652 0 
-0.5375 -0.394565 0 -0.487805 -0.390244 0 -0.487805 -0.365854 0 
-0.463415 -0.390244 0 -0.463415 -0.365854 0 -0.414634 -0.365854 0 
-0.439024 -0.365854 0 -0.414634 -0.390244 0 -0.439024 -0.390244 0 
-0.365854 -0.390244 0 -0.365854 -0.365854 0 -0.390244 -0.390244 0 
-0.390244 -0.365854 0 -0.341463 -0.365854 0 -0.341463 -0.390244 0 
-0.317073 -0.390244 0 -0.317073 -0.365854 0 -0.292683 -0.390244 0 
-0.292683 -0.365854 0 -0.268293 -0.390244 0 -0.268293 -0.365854 0 
-0.243902 -0.365854 0 -0.243902 -0.390244 0 -0.219512 -0.390244 0 
-0.219512 -0.365854 0 -0.170732 -0.365854 0 -0.170732 -0.390244 0 
-0.195122 -0.390244 0 -0.195122 -0.365854 0 -0.146341 -0.390244 0 
-0.146341 -0.365854 0 -0.121951 -0.390244 0 -0.121951 -0.365854 0 
-0.097561 -0.390244 0 -0.0731707 -0.390244 0 -0.0731707 -0.365854 0 
-0.097561 -0.365854 0 -0.0243903 -0.365854 0 -0.0243903 -0.390244 0 
-0.0487805 -0.365854 0 -1.86265e-08 -0.365854 0 -1.86265e-08 -0.390244 0 
-0.0487805 -0.390244 0 0.0243902 -0.390244 0 0.0243902 -0.365854 0 
0.0487805 -0.390244 0 0.0487805 -0.365854 0 0.0731707 -0.365854 0 
0.0731707 -0.390244 0 0.097561 -0.390244 0 0.097561 -0.365854 0 
0.146341 -0.365854 0 0.146341 -0.390244 0 0.121951 -0.365854 0 
0.121951 -0.390244 0 0.195122 -0.390244 0 0.195122 -0.365854 0 
0.170732 -0.390244 0 0.170732 -0.365854 0 0.243902 -0.390244 0 
0.243902 -0.365854 0 0.219512 -0.390244 0 0.219512 -0.365854 0 
0.292683 -0.390244 0 0.268293 -0.365854 0 0.268293 -0.390244 0 
0.292683 -0.365854 0 0.317073 -0.390244 0 0.341463 -0.390244 0 
0.341463 -0.365854 0 0.317073 -0.365854 0 0.365854 -0.390244 0 
0.365854 -0.365854 0 0.390244 -0.365854 0 0.390244 -0.390244 0 
0.439024 -0.390244 0 0.439024 -0.365854 0 0.414634 -0.390244 0 
0.414634 -0.365854 0 0.487805 -0.365854 0 0.463415 -0.365854 0 
0.463415 -0.390244 0 0.487805 -0.390244 0 0.5125 -0.370652 0 
0.5125 -0.394565 0 0.5375 -0.394565 0 0.5375 -0.370652 0 
-0.5125 -0.322826 0 -0.5125 -0.346739 0 -0.5375 -0.322826 0 
-0.5375 -0.346739 0 -0.463415 -0.341463 0 -0.487805 -0.317073 0 
-0.487805 -0.341463 0 -0.463415 -0.317073 0 -0.414634 -0.341463 0 
-0.439024 -0.341463 0 -0.439024 -0.317073 0 -0.414634 -0.317073 0 
-0.365854 -0.317073 0 -0.365854 -0.341463 0 -0.390244 -0.317073 0 
-0.390244 -0.341463 0 -0.317073 -0.317073 0 -0.341463 -0.341463 0 
-0.341463 -0.317073 0 -0.317073 -0.341463 0 -0.268293 -0.317073 0 
-0.292683 -0.317073 0 -0.268293 -0.341463 0 -0.292683 -0.341463 0 
-0.219512 -0.341463 0 -0.219512 -0.317073 0 -0.243902 -0.341463 0 
-0.243902 -0.317073 0 -0.195122 -0.317073 0 -0.195122 -0.341463 0 
-0.170732 -0.341463 0 -0.170732 -0.317073 0 -0.121951 -0.317073 0 
-0.146341 -0.341463 0 -0.146341 -0.317073 0 -0.121951 -0.341463 0 
-0.097561 -0.317073 0 -0.097561 -0.341463 0 -0.0731707 -0.341463 0 
-0.0731707 -0.317073 0 -0.0243903 -0.341463 0 -1.86265e-08 -0.317073 0 
-1.86265e-08 -0.341463 0 -0.0243903 -0.317073 0 -0.0487805 -0.341463 0 
-0.0487805 -0.317073 0 0.0243902 -0.341463 0 0.0487805 -0.317073 0 
0.0487805 -0.341463 0 0.0243902 -0.317073 0 0.0731707 -0.341463 0 
0.0731707 -0.317073 0 0.097561 -0.341463 0 0.097561 -0.317073 0 
0.146341 -0.341463 0 0.146341 -0.317073 0 0.121951 -0.341463 0 
0.121951 -0.317073 0 0.170732 -0.317073 0 0.170732 -0.341463 0 
0.195122 -0.341463 0 0.195122 -0.317073 0 0.243902 -0.341463 0 
0.243902 -0.317073 0 0.219512 -0.341463 0 0.219512 -0.317073 0 
0.268293 -0.341463 0 0.268293 -0.317073 0 0.292683 -0.341463 0 
0.292683 -0.317073 0 0.317073 -0.317073 0 0.317073 -0.341463 0 
0.341463 -0.317073 0 0.341463 -0.341463 0 0.365854 -0.317073 0 
0.365854 -0.341463 0 0.390244 -0.317073 0 0.390244 -0.341463 0 
0.414634 -0.317073 0 0.439024 -0.317073 0 0.439024 -0.341463 0 
0.414634 -0.341463 0 0.487805 -0.317073 0 0.487805 -0.341463 0 
[...]
POINT_DATA 2029
SCALARS id float
LOOKUP_TABLE default
1681 1682 1728 1727 1774 1776 1775 1773 1777 
1778 1779 1780 1781 1782 1783 1784 1787 1785 
1786 1788 1792 1791 1790 1789 1793 1794 1796 
1795 1797 1800 1799 1798 1804 1803 1802 1801 
1808 1807 1806 1805 1813 1812 1811 1810 1809 
1814 1818 1815 1816 1817 1819 1820 1821 1822 
1825 1826 1824 1823 1827 1828 1829 1830 1833 
1834 1832 1831 1835 1838 1837 1836 1842 1841 
1840 1839 1846 1845 1844 1843 1850 1849 1848 
1847 1852 1853 1854 1851 1855 1856 1901 1902 
1683 1729 1730 1684 0 1 42 41 82 
83 123 124 165 164 205 206 288 247 
246 287 370 369 329 328 410 451 452 
411 534 533 492 493 616 615 575 574 
697 656 698 657 821 820 739 738 780 
779 861 862 902 903 985 944 984 943 
1025 1026 1066 1067 1108 1149 1148 1107 1189 
1190 1230 1231 1271 1272 1313 1312 1395 1353 
1354 1394 1477 1435 1476 1436 1558 1559 1517 
1518 1640 1600 1599 1641 1904 1857 1858 1903 
1731 1732 1685 1686 44 3 2 43 85 
125 126 84 207 166 208 167 289 248 
249 290 372 330 331 371 413 412 453 
454 535 536 494 495 618 617 577 576 
659 700 658 699 782 823 741 740 822 
781 863 864 904 905 946 945 986 987 
1068 1028 1027 1069 1151 1150 1110 1109 1192 
1232 1233 1191 1274 1315 1314 1273 1356 1397 
1355 1396 1479 1438 1478 1437 1560 1520 1519 
1561 1601 1643 1642 1602 1906 1905 1859 1860 
1733 1734 1688 1687 4 5 45 46 128 
87 127 86 209 210 168 169 251 250 
291 292 332 333 373 374 415 414 455 
456 538 537 496 497 578 579 619 620 
660 701 702 661 784 783 743 825 824 
742 865 866 906 907 948 947 988 989 
1071 1070 1030 1029 1152 1153 1111 1112 1234 
1235 1193 1194 1316 1276 1275 1317 1357 1398 
1399 1358 1439 1440 1481 1480 1562 1563 1521 
1522 1645 1604 1603 1644 1862 1861 1907 1908 
1736 1735 1690 1689 47 7 6 48 129 
88 89 130 212 211 171 170 294 252 
253 293 376 335 375 334 457 458 416 
417 499 498 539 540 622 580 581 621 
663 662 703 704 785 827 826 786 744 
745 867 909 908 868 949 950 990 991 
1072 1073 1031 1032 1114 1113 1154 1155 1236 
1237 1195 1196 1277 1278 1318 1319 1360 1359 
1401 1400 1442 1441 1483 1482 1524 1565 1564 
1523 1647 1646 1606 1605 1864 1863 1909 1910 
1692 1693 1739 1738 1691 1737 9 8 49 
50 132 131 90 91 213 214 172 173 
296 255 254 295 336 337 377 378 460 
459 418 419 501 542 541 500 583 582 
624 623 665 705 706 664 747 746 829 
787 788 828 869 870 910 911 992 952 
951 993 1075 1034 1033 1074 1157 1115 1156 
1116 1197 1198 1238 1239 1279 1280 1320 1321 
1402 1403 1362 1361 1444 1443 1484 1485 1567 
1525 1526 1566 1649 1648 1607 1608 1912 1866 
1865 1867 1911 1913 1694 1741 1740 1695 51 
10 11 52 134 133 93 92 216 175 
215 174 257 256 297 298 380 379 338 
339 461 462 420 421 543 544 503 502 
626 625 585 584 666 667 708 707 830 
749 748 789 790 831 872 871 912 913 
954 994 995 953 1076 1077 1035 1036 1117 
1118 1158 1159 1199 1241 1240 1200 1322 1281 
1323 1282 1405 1363 1364 1404 1486 1487 1446 
1445 1528 1569 1568 1527 1651 1650 1609 1610 
1869 1868 1915 1914 1742 1743 1696 1697 12 
54 13 53 94 95 136 135 176 217 
218 177 299 300 258 259 340 381 382 
341 463 423 464 422 546 545 504 505 
587 586 628 627 709 669 668 710 792 
791 751 750 832 833 874 915 914 873 
955 956 996 997 1078 1079 1037 1038 1119 
1120 1160 1161 1202 1201 1242 1243 1283 1324 
1325 1284 1365 1407 1366 1406 1447 1489 1488 
1448 1529 1570 1571 1530 1652 1653 1612 1611 
1916 1870 1871 1917 1699 1744 1745 1698 15 
55 56 14 96 137 97 138 219 178 
179 220 260 261 302 301 384 342 343 
383 465 466 424 425 506 507 548 547 
629 630 588 589 671 712 711 670 834 
753 793 794 752 835 917 875 876 916 
958 957 998 999 1040 1081 1080 1039 1162 
1122 1163 1121 1244 1245 1204 1203 1285 1286 
1326 1327 1409 1408 1367 1368 1450 1490 1449 
1491 1531 1532 1572 1573 1613 1655 1654 1614 
1918 1919 1873 1872 1700 1701 1747 1746 16 
58 17 57 140 98 99 139 221 222 
180 181 303 262 263 304 345 386 385 
344 468 426 427 467 508 550 549 509 
632 631 591 590 714 672 673 713 837 
836 796 755 754 795 877 878 918 919 
1001 960 959 1000 1042 1041 1083 1082 1124 
1164 1165 1123 1206 1246 1205 1247 1287 1288 
1328 1329 1370 1369 1410 1411 1493 1452 1451 
1492 1533 1534 1575 1574 1616 1615 1657 1656 
1920 1874 1875 1921 1702 1748 1703 1749 20 
19 18 61 60 59 100 101 102 143 
142 141 183 182 223 224 184 225 306 
266 265 264 305 307 348 347 389 388 
387 346 429 428 430 470 469 471 510 
553 511 552 512 551 594 633 634 635 
593 592 715 716 676 717 675 674 758 
757 756 840 839 797 798 799 838 920 
881 880 879 922 921 963 962 961 1004 
1003 1002 1084 1086 1085 1044 1045 1043 1126 
1125 1166 1167 1127 1168 1207 1249 1248 1250 
1208 1209 1291 1290 1289 1332 1331 1330 1373 
1372 1371 1412 1413 1414 1496 1495 1494 1453 
1454 1455 1535 1537 1536 1578 1576 1577 1617 
1618 1619 1660 1659 1658 1877 1923 1922 1876 
1751 1704 1705 1750 21 63 62 22 144 
103 104 145 186 227 185 226 308 309 
268 267 350 349 390 391 472 473 432 
431 514 554 513 555 637 595 596 636 
677 678 719 718 760 842 841 800 801 
759 923 924 883 882 964 965 1006 1005 
1047 1088 1087 1046 1129 1128 1169 1170 1252 
1251 1210 1211 1333 1334 1292 1293 1374 1375 
1415 1416 1497 1498 1456 1457 1580 1538 1539 
1579 1621 1620 1661 1662 1879 1924 1925 1878 
1707 1706 1752 1753 23 65 24 64 146 
105 106 147 187 229 228 188 270 269 
311 310 351 352 392 393 433 434 474 
475 556 516 515 557 638 598 597 639 
680 679 721 720 844 802 843 762 761 
803 925 926 884 885 1007 966 967 1008 
1048 1049 1089 1090 1172 1130 1171 1131 1254 
1213 1212 1253 1336 1335 1294 1295 1418 1417 
1377 1376 1459 1500 1499 1458 1581 1582 1541 
1540 1663 1622 1623 1664 1927 1881 1926 1880 
1755 1754 1708 1709 67 66 26 25 108 
107 148 149 189 190 230 231 271 272 
312 313 394 395 354 353 435 436 476 
477 517 558 559 518 600 599 641 640 
722 723 682 681 845 846 764 805 763 
804 927 887 928 886 968 1009 1010 969 
1050 1051 1091 1092 1174 1173 1132 1133 1255 
1214 1215 1256 1296 1297 1337 1338 1379 1420 
1419 1378 1461 1460 1502 1501 1542 1583 1543 
1584 1665 1624 1666 1625 1928 1929 1882 1883 
1710 1756 1711 1757 27 68 28 69 151 
150 110 109 233 191 192 232 273 315 
314 274 355 356 397 396 437 478 438 
479 561 560 519 520 602 601 642 643 
724 725 683 684 847 848 766 807 765 
806 889 930 888 929 970 1011 1012 971 
1052 1094 1053 1093 1176 1175 1134 1135 1257 
1216 1217 1258 1339 1298 1340 1299 1421 1422 
1380 1381 1463 1462 1503 1504 1545 1544 1586 
1585 1667 1627 1668 1626 1885 1884 1930 1931 
1759 1758 1713 1712 71 30 29 70 152 
111 112 153 234 235 194 193 317 316 
275 276 357 358 398 399 480 481 440 
439 562 522 521 563 603 644 645 604 
727 685 686 726 850 849 767 768 809 
808 890 891 931 932 1014 972 973 1013 
1054 1055 1096 1095 1137 1136 1177 1178 1259 
1260 1219 1218 1300 1342 1301 1341 1424 1382 
1383 1423 1465 1464 1505 1506 1546 1547 1588 
1587 1669 1670 1628 1629 1887 1933 1886 1932 
1762 1716 1715 1714 1761 1760 31 73 72 
32 154 155 113 114 237 236 196 195 
318 319 278 277 360 400 401 359 441 
483 482 442 523 564 565 524 605 606 
646 647 687 688 728 729 769 770 810 
811 851 852 934 933 893 892 1016 974 
975 1015 1097 1098 1057 1056 1179 1180 1139 
1138 1220 1262 1261 1221 1344 1343 1303 1302 
1385 1425 1426 1384 1467 1466 1508 1507 1549 
1548 1589 1590 1631 1630 1671 1672 1934 1935 
1890 1889 1888 1936 1717 1718 1763 1764 74 
33 34 75 157 156 116 115 197 239 
238 198 321 320 279 280 362 361 402 
403 444 443 485 484 566 567 525 526 
648 608 649 607 689 690 730 731 772 
771 812 813 854 853 894 895 935 936 
1017 1018 976 977 1099 1100 1059 1058 1140 
1182 1141 1181 1264 1263 1223 1222 1345 1305 
1304 1346 1427 1387 1428 1386 1469 1510 1509 
1468 1551 1592 1550 1591 1633 1674 1673 1632 
1892 1938 1937 1891 1719 1720 1765 1766 36 
76 35 77 158 118 159 117 200 199 
241 240 281 282 322 323 363 364 405 
404 446 445 487 486 527 568 528 569 
651 650 609 610 691 733 732 692 815 
773 774 814 855 856 896 897 938 937 
1019 978 979 1020 1061 1101 1102 1060 1143 
1184 1183 1142 1265 1266 1225 1224 1348 1306 
1347 1307 1429 1430 1388 1389 1471 1470 1512 
1511 1553 1594 1593 1552 1634 1635 1675 1676 
1893 1939 1894 1940 1721 1722 1767 1768 38 
37 79 78 119 161 120 160 202 201 
243 242 325 283 284 324 366 365 406 
407 489 448 488 447 529 570 530 571 
653 652 612 611 693 694 734 735 858 
857 817 816 776 775 940 939 899 898 
980 981 1022 1021 1063 1062 1104 1103 1144 
1145 1186 1185 1226 1227 1268 1267 1308 1309 
1349 1350 1390 1391 1432 1431 1513 1473 1514 
1472 1596 1554 1555 1595 1678 1677 1637 1636 
1942 1895 1896 1941 1769 1724 1723 1770 40 
39 81 80 122 163 162 121 204 203 
244 245 326 327 285 286 408 409 368 
367 491 490 450 449 531 532 572 573 
654 655 614 613 695 696 736 737 819 
777 778 818 859 860 900 901 941 942 
1024 1023 983 982 1105 1106 1065 1064 1188 
1146 1147 1187 1228 1229 1269 1270 1352 1351 
1311 1310 1433 1392 1434 1393 1516 1475 1474 
1515 1556 1557 1597 1598 1679 1639 1680 1638 
1897 1944 1943 1898 1725 1772 1771 1726 1947 
1948 1949 1950 1951 1952 1953 1954 1955 1956 
1957 1958 1962 1959 1961 1960 1963 1964 1965 
1966 1967 1970 1968 1969 1971 1973 1972 1974 
1976 1975 1977 1978 1979 1980 1981 1982 1988 
1984 1985 1986 1987 1983 1989 1990 1991 1992 
1993 1994 1995 1996 1997 1998 1999 2000 2001 
2002 2003 2004 2005 2006 2007 2008 2009 2010 
2011 2012 2013 2014 2015 2016 2017 2018 2019 
2020 2021 2022 2023 2024 2025 2026 2027 2028 
1946 1945 1899 1900 
FIELD FieldData 4
r 3 2029 float
-0.5375 -0.538043 0 -0.5375 -0.51413 0 -0.5125 -0.51413 0 
-0.5125 -0.538043 0 -0.487805 -0.5125 0 -0.463415 -0.5125 0 
-0.463415 -0.5375 0 -0.487805 -0.5375 0 -0.439024 -0.5375 0 
-0.439024 -0.5125 0 -0.414634 -0.5375 0 -0.414634 -0.5125 0 
-0.390244 -0.5375 0 -0.390244 -0.5125 0 -0.365854 -0.5375 0 
-0.365854 -0.5125 0 -0.317073 -0.5375 0 -0.341463 -0.5375 0 
-0.341463 -0.5125 0 -0.317073 -0.5125 0 -0.268293 -0.5125 0 
-0.268293 -0.5375 0 -0.292683 -0.5125 0 -0.292683 -0.5375 0 
-0.243902 -0.5375 0 -0.243902 -0.5125 0 -0.219512 -0.5125 0 
-0.219512 -0.5375 0 -0.195122 -0.5375 0 -0.170732 -0.5125 0 
-0.170732 -0.5375 0 -0.195122 -0.5125 0 -0.121951 -0.5125 0 
-0.121951 -0.5375 0 -0.146341 -0.5125 0 -0.146341 -0.5375 0 
-0.0731707 -0.5125 0 -0.0731707 -0.5375 0 -0.097561 -0.5125 0 
-0.097561 -0.5375 0 -1.86265e-08 -0.5375 0 -0.0243903 -0.5125 0 
-0.0243903 -0.5375 0 -0.0487805 -0.5125 0 -0.0487805 -0.5375 0 
-1.86265e-08 -0.5125 0 0.0487805 -0.5125 0 0.0243902 -0.5375 0 
0.0243902 -0.5125 0 0.0487805 -0.5375 0 0.0731707 -0.5375 0 
0.0731707 -0.5125 0 0.097561 -0.5375 0 0.097561 -0.5125 0 
0.146341 -0.5375 0 0.146341 -0.5125 0 0.121951 -0.5125 0 
0.121951 -0.5375 0 0.170732 -0.5375 0 0.170732 -0.5125 0 
0.195122 -0.5375 0 0.195122 -0.5125 0 0.243902 -0.5375 0 
0.243902 -0.5125 0 0.219512 -0.5125 0 0.219512 -0.5375 0 
0.268293 -0.5375 0 0.292683 -0.5125 0 0.292683 -0.5375 0 
0.268293 -0.5125 0 0.341463 -0.5125 0 0.341463 -0.5375 0 
0.317073 -0.5125 0 0.317073 -0.5375 0 0.390244 -0.5125 0 
0.390244 -0.5375 0 0.365854 -0.5125 0 0.365854 -0.5375 0 
0.439024 -0.5125 0 0.439024 -0.5375 0 0.414634 -0.5125 0 
0.414634 -0.5375 0 0.463415 -0.5125 0 0.487805 -0.5375 0 
0.487805 -0.5125 0 0.463415 -0.5375 0 0.5125 -0.538043 0 
0.5125 -0.51413 0 0.5375 -0.538043 0 0.5375 -0.51413 0 
-0.5375 -0.490217 0 -0.5125 -0.490217 0 -0.5125 -0.466304 0 
-0.5375 -0.466304 0 -0.487805 -0.487805 0 -0.487805 -0.463415 0 
-0.463415 -0.463415 0 -0.463415 -0.487805 0 -0.439024 -0.487805 0 
-0.439024 -0.463415 0 -0.414634 -0.487805 0 -0.414634 -0.463415 0 
-0.390244 -0.463415 0 -0.390244 -0.487805 0 -0.365854 -0.487805 0 
-0.365854 -0.463415 0 -0.317073 -0.463415 0 -0.341463 -0.463415 0 
-0.341463 -0.487805 0 -0.317073 -0.487805 0 -0.268293 -0.463415 0 
-0.268293 -0.487805 0 -0.292683 -0.463415 0 -0.292683 -0.487805 0 
-0.243902 -0.487805 0 -0.219512 -0.487805 0 -0.219512 -0.463415 0 
-0.243902 -0.463415 0 -0.170732 -0.463415 0 -0.170732 -0.487805 0 
-0.195122 -0.487805 0 -0.195122 -0.463415 0 -0.121951 -0.463415 0 
-0.121951 -0.487805 0 -0.146341 -0.463415 0 -0.146341 -0.487805 0 
-0.0731707 -0.487805 0 -0.097561 -0.487805 0 -0.0731707 -0.463415 0 
-0.097561 -0.463415 0 -1.86265e-08 -0.463415 0 -1.86265e-08 -0.487805 0 
-0.0487805 -0.463415 0 -0.0487805 -0.487805 0 -0.0243903 -0.463415 0 
-0.0243903 -0.487805 0 0.0243902 -0.487805 0 0.0243902 -0.463415 0 
0.0487805 -0.487805 0 0.0487805 -0.463415 0 0.097561 -0.463415 0 
0.0731707 -0.463415 0 0.097561 -0.487805 0 0.0731707 -0.487805 0 
0.121951 -0.487805 0 0.121951 -0.463415 0 0.146341 -0.487805 0 
0.146341 -0.463415 0 0.170732 -0.463415 0 0.195122 -0.463415 0 
0.195122 -0.487805 0 0.170732 -0.487805 0 0.219512 -0.487805 0 
0.219512 -0.463415 0 0.243902 -0.487805 0 0.243902 -0.463415 0 
0.268293 -0.487805 0 0.268293 -0.463415 0 0.292683 -0.463415 0 
0.292683 -0.487805 0 0.341463 -0.463415 0 0.317073 -0.487805 0 
0.317073 -0.463415 0 0.341463 -0.487805 0 0.390244 -0.463415 0 
0.365854 -0.487805 0 0.390244 -0.487805 0 0.365854 -0.463415 0 
0.439024 -0.487805 0 0.439024 -0.463415 0 0.414634 -0.487805 0 
0.414634 -0.463415 0 0.487805 -0.487805 0 0.463415 -0.463415 0 
0.463415 -0.487805 0 0.487805 -0.463415 0 0.5375 -0.466304 0 
0.5125 -0.490217 0 0.5125 -0.466304 0 0.5375 -0.490217 0 
-0.5125 -0.442391 0 -0.5125 -0.418478 0 -0.5375 -0.442391 0 
-0.5375 -0.418478 0 -0.463415 -0.414634 0 -0.487805 -0.414634 0 
-0.487805 -0.439024 0 -0.463415 -0.439024 0 -0.439024 -0.414634 0 
-0.414634 -0.439024 0 -0.414634 -0.414634 0 -0.439024 -0.439024 0 
-0.365854 -0.439024 0 -0.390244 -0.439024 0 -0.365854 -0.414634 0 
-0.390244 -0.414634 0 -0.317073 -0.439024 0 -0.341463 -0.439024 0 
-0.341463 -0.414634 0 -0.317073 -0.414634 0 -0.268293 -0.414634 0 
-0.292683 -0.439024 0 -0.292683 -0.414634 0 -0.268293 -0.439024 0 
-0.243902 -0.414634 0 -0.243902 -0.439024 0 -0.219512 -0.439024 0 
-0.219512 -0.414634 0 -0.170732 -0.439024 0 -0.170732 -0.414634 0 
-0.195122 -0.439024 0 -0.195122 -0.414634 0 -0.121951 -0.414634 0 
-0.121951 -0.439024 0 -0.146341 -0.414634 0 -0.146341 -0.439024 0 
-0.097561 -0.414634 0 -0.0731707 -0.414634 0 -0.097561 -0.439024 0 
-0.0731707 -0.439024 0 -0.0243903 -0.414634 0 -1.86265e-08 -0.414634 0 
-0.0487805 -0.414634 0 -0.0487805 -0.439024 0 -1.86265e-08 -0.439024 0 
-0.0243903 -0.439024 0 0.0243902 -0.439024 0 0.0243902 -0.414634 0 
0.0487805 -0.439024 0 0.0487805 -0.414634 0 0.0731707 -0.414634 0 
0.0731707 -0.439024 0 0.097561 -0.439024 0 0.097561 -0.414634 0 
0.146341 -0.439024 0 0.121951 -0.414634 0 0.121951 -0.439024 0 
0.146341 -0.414634 0 0.195122 -0.414634 0 0.195122 -0.439024 0 
0.170732 -0.414634 0 0.170732 -0.439024 0 0.219512 -0.414634 0 
0.243902 -0.439024 0 0.243902 -0.414634 0 0.219512 -0.439024 0 
0.268293 -0.414634 0 0.292683 -0.414634 0 0.292683 -0.439024 0 
0.268293 -0.439024 0 0.317073 -0.414634 0 0.341463 -0.414634 0 
0.317073 -0.439024 0 0.341463 -0.439024 0 0.390244 -0.414634 0 
0.365854 -0.414634 0 0.390244 -0.439024 0 0.365854 -0.439024 0 
0.439024 -0.439024 0 0.414634 -0.414634 0 0.414634 -0.439024 0 
0.439024 -0.414634 0 0.463415 -0.439024 0 0.487805 -0.414634 0 
0.487805 -0.439024 0 0.463415 -0.414634 0 0.5375 -0.418478 0 
0.5375 -0.442391 0 0.5125 -0.442391 0 0.5125 -0.418478 0 
-0.5125 -0.394565 0 -0.5125 -0.370652 0 -0.5375 -0.370652 0 
-0.5375 -0.394565 0 -0.487805 -0.390244 0 -0.487805 -0.365854 0 
-0.463415 -0.390244 0 -0.463415 -0.365854 0 -0.414634 -0.365854 0 
-0.439024 -0.365854 0 -0.414634 -0.390244 0 -0.439024 -0.390244 0 
-0.365854 -0.390244 0 -0.365854 -0.365854 0 -0.390244 -0.390244 0 
-0.390244 -0.365854 0 -0.341463 -0.365854 0 -0.341463 -0.390244 0 
-0.317073 -0.390244 0 -0.317073 -0.365854 0 -0.292683 -0.390244 0 
-0.292683 -0.365854 0 -0.268293 -0.390244 0 -0.268293 -0.365854 0 
-0.243902 -0.365854 0 -0.243902 -0.390244 0 -0.219512 -0.390244 0 
-0.219512 -0.365854 0 -0.170732 -0.365854 0 -0.170732 -0.390244 0 
-0.195122 -0.390244 0 -0.195122 -0.365854 0 -0.146341 -0.390244 0 
-0.146341 -0.365854 0 -0.121951 -0.390244 0 -0.121951 -0.365854 0 
-0.097561 -0.390244 0 -0.0731707 -0.390244 0 -0.0731707 -0.365854 0 
-0.097561 -0.365854 0 -0.0243903 -0.365854 0 -0.0243903 -0.390244 0 
-0.0487805 -0.365854 0 -1.86265e-08 -0.365854 0 -1.86265e-08 -0.390244 0 
-0.0487805 -0.390244 0 0.0243902 -0.390244 0 0.0243902 -0.365854 0 
0.0487805 -0.390244 0 0.0487805 -0.365854 0 0.0731707 -0.365854 0 
0.0731707 -0.390244 0 0.097561 -0.390244 0 0.097561 -0.365854 0 
0.146341 -0.365854 0 0.146341 -0.390244 0 0.121951 -0.365854 0 
0.121951 -0.390244 0 0.195122 -0.390244 0 0.195122 -0.365854 0 
0.170732 -0.390244 0 0.170732 -0.365854 0 0.243902 -0.390244 0 
0.243902 -0.365854 0 0.219512 -0.390244 0 0.219512 -0.365854 0 
0.292683 -0.390244 0 0.268293 -0.365854 0 0.268293 -0.390244 0 
0.292683 -0.365854 0 0.317073 -0.390244 0 0.341463 -0.390244 0 
0.341463 -0.365854 0 0.317073 -0.365854 0 0.365854 -0.390244 0 
0.365854 -0.365854 0 0.390244 -0.365854 0 0.390244 -0.390244 0 
0.439024 -0.390244 0 0.439024 -0.365854 0 0.414634 -0.390244 0 
0.414634 -0.365854 0 0.487805 -0.365854 0 0.463415 -0.365854 0 
0.463415 -0.390244 0 0.487805 -0.390244 0 0.5125 -0.370652 0 
0.5125 -0.394565 0 0.5375 -0.394565 0 0.5375 -0.370652 0 
-0.5125 -0.322826 0 -0.5125 -0.346739 0 -0.5375 -0.322826 0 
-0.5375 -0.346739 0 -0.463415 -0.341463 0 -0.487805 -0.317073 0 
-0.487805 -0.341463 0 -0.463415 -0.317073 0 -0.414634 -0.341463 0 
-0.439024 -0.341463 0 -0.439024 -0.317073 0 -0.414634 -0.317073 0 
-0.365854 -0.317073 0 -0.365854 -0.341463 0 -0.390244 -0.317073 0 
-0.390244 -0.341463 0 -0.317073 -0.317073 0 -0.341463 -0.341463 0 
-0.341463 -0.317073 0 -0.317073 -0.341463 0 -0.268293 -0.317073 0 
-0.292683 -0.317073 0 -0.268293 -0.341463 0 -0.292683 -0.341463 0 
-0.219512 -0.341463 0 -0.219512 -0.317073 0 -0.243902 -0.341463 0 
-0.243902 -0.317073 0 -0.195122 -0.317073 0 -0.195122 -0.341463 0 
-0.170732 -0.341463 0 -0.170732 -0.317073 0 -0.121951 -0.317073 0 
-0.146341 -0.341463 0 -0.146341 -0.317073 0 -0.121951 -0.341463 0 
-0.097561 -0.317073 0 -0.097561 -0.341463 0 -0.0731707 -0.341463 0 
-0.0731707 -0.317073 0 -0.0243903 -0.341463 0 -1.86265e-08 -0.317073 0 
-1.86265e-08 -0.341463 0 -0.0243903 -0.317073 0 -0.0487805 -0.341463 0 
-0.0487805 -0.317073 0 0.0243902 -0.341463 0 0.0487805 -0.317073 0 
0.0487805 -0.341463 0 0.0243902 -0.317073 0 0.0731707 -0.341463 0 
0.0731707 -0.317073 0 0.097561 -0.341463 0 0.097561 -0.317073 0 
0.146341 -0.341463 0 0.146341 -0.317073 0 0.121951 -0.341463 0 
0.121951 -0.317073 0 0.170732 -0.317073 0 0.170732 -0.341463 0 
0.195122 -0.341463 0 0.195122 -0.317073 0 0.243902 -0.341463 0 
0.243902 -0.317073 0 0.219512 -0.341463 0 0.219512 -0.317073 0 
0.268293 -0.341463 0 0.268293 -0.317073 0 0.292683 -0.341463 0 
0.292683 -0.317073 0 0.317073 -0.317073 0 0.317073 -0.341463 0 
0.341463 -0.317073 0 0.341463 -0.341463 0 0.365854 -0.317073 0 
0.365854 -0.341463 0 0.390244 -0.317073 0 0.390244 -0.341463 0 
0.414634 -0.317073 0 0.439024 -0.317073 0 0.439024 -0.341463 0 
0.414634 -0.341463 0 0.487805 -0.317073 0 0.487805 -0.341463 0 
0.463415 -0.317073 0 0.463415 -0.341463 0 0.5125 -0.322826 0 
0.5125 -0.346739 0 0.5375 -0.346739 0 0.5375 -0.322826 0 
-0.5375 -0.275 0 -0.5375 -0.251087 0 -0.5125 -0.251087 0 
-0.5125 -0.275 0 -0.5375 -0.298913 0 -0.5125 -0.298913 0 
-0.487805 -0.268293 0 -0.487805 -0.292683 0 -0.463415 -0.292683 0 
-0.463415 -0.268293 0 -0.414634 -0.268293 0 -0.414634 -0.292683 0 
-0.439024 -0.292683 0 -0.439024 -0.268293 0 -0.365854 -0.292683 0 
-0.365854 -0.268293 0 -0.390244 -0.292683 0 -0.390244 -0.268293 0 
-0.317073 -0.268293 0 -0.341463 -0.268293 0 -0.341463 -0.292683 0 
-0.317073 -0.292683 0 -0.292683 -0.292683 0 -0.292683 -0.268293 0 
-0.268293 -0.292683 0 -0.268293 -0.268293 0 -0.219512 -0.268293 0 
-0.219512 -0.292683 0 -0.243902 -0.292683 0 -0.243902 -0.268293 0 
-0.195122 -0.268293 0 -0.170732 -0.268293 0 -0.170732 -0.292683 0 
-0.195122 -0.292683 0 -0.146341 -0.268293 0 -0.146341 -0.292683 0 
-0.121951 -0.268293 0 -0.121951 -0.292683 0 -0.097561 -0.268293 0 
-0.0731707 -0.292683 0 -0.0731707 -0.268293 0 -0.097561 -0.292683 0 